
     Program BANDS v.7.0 starts on 13Jul2022 at 17:34:35 
        Git branch: master
        Last git commit: 28725dfbb9ee577d70cbdc372282dc9039605ca5
        Last git commit date: Tue Dec 21 15:37:27 2021 +0000
        Last git commit subject: Merge branch merge-develop-to-master into mas..

     This program is part of the open-source Quantum ESPRESSO suite
     for quantum simulation of materials; please cite
         "P. Giannozzi et al., J. Phys.:Condens. Matter 21 395502 (2009);
         "P. Giannozzi et al., J. Phys.:Condens. Matter 29 465901 (2017);
         "P. Giannozzi et al., J. Chem. Phys. 152 154105 (2020);
          URL http://www.quantum-espresso.org", 
     in publications or presentations arising from this work. More details at
     http://www.quantum-espresso.org/quote

     Parallel version (MPI), running on     1 processors

     MPI processes distributed on     1 nodes
     748821 MiB available memory on the printing compute node when the environment starts


     Reading xml data from directory:

     ./out/MoS2.save/
     file Mo.pbe-spn-kjpaw_psl.1.0.0.UPF: wavefunction(s)  4S 4D renormalized
     file S.pbe-nl-kjpaw_psl.1.0.0.UPF: wavefunction(s)  3S renormalized

     IMPORTANT: XC functional enforced from input :
     Exchange-correlation= PBE
                           (   1   4   3   4   0   0   0)
     Any further DFT definition will be discarded
     Please, verify this is what you really want


     G-vector sticks info
     --------------------
     sticks:   dense  smooth     PW     G-vecs:    dense   smooth      PW
     Sum          85      85     37                 2371     2371     749

     Using Slab Decomposition


     Check: negative core charge=   -0.000002
     Reading collected, re-writing distributed wavefunctions
     high-symmetry point:  0.0000 0.0000 0.0000   x coordinate   0.0000
     high-symmetry point:  0.5000 0.2887 0.0000   x coordinate   0.5774
     high-symmetry point:  0.6667 0.7698 0.0000   x coordinate   1.0865
     high-symmetry point:  0.0000 0.0000 0.0000   x coordinate   2.1049

     Plottable bands (eV) written to file MoS2_bands.dat.gnu
     Bands written to file MoS2_bands.dat

 **************************************************************************

                    xk=(   0.00000,   0.00000,   0.00000  )

     point group D_6h(6/mmm)
     there are 12 classes
     the character table:

       E     2C6   2C3   C2    3C2'  3C2'' i     2S3   2S6   s_h   3s_d  3s_v 
A_1g   1.00  1.00  1.00  1.00  1.00  1.00  1.00  1.00  1.00  1.00  1.00  1.00
A_2g   1.00  1.00  1.00  1.00 -1.00 -1.00  1.00  1.00  1.00  1.00 -1.00 -1.00
B_1g   1.00 -1.00  1.00 -1.00  1.00 -1.00  1.00 -1.00  1.00 -1.00  1.00 -1.00
B_2g   1.00 -1.00  1.00 -1.00 -1.00  1.00  1.00 -1.00  1.00 -1.00 -1.00  1.00
E_1g   2.00  1.00 -1.00 -2.00  0.00  0.00  2.00  1.00 -1.00 -2.00  0.00  0.00
E_2g   2.00 -1.00 -1.00  2.00  0.00  0.00  2.00 -1.00 -1.00  2.00  0.00  0.00
A_1u   1.00  1.00  1.00  1.00  1.00  1.00 -1.00 -1.00 -1.00 -1.00 -1.00 -1.00
A_2u   1.00  1.00  1.00  1.00 -1.00 -1.00 -1.00 -1.00 -1.00 -1.00  1.00  1.00
B_1u   1.00 -1.00  1.00 -1.00  1.00 -1.00 -1.00  1.00 -1.00  1.00 -1.00  1.00
B_2u   1.00 -1.00  1.00 -1.00 -1.00  1.00 -1.00  1.00 -1.00  1.00  1.00 -1.00
E_1u   2.00  1.00 -1.00 -2.00  0.00  0.00 -2.00 -1.00  1.00  2.00  0.00  0.00
E_2u   2.00 -1.00 -1.00  2.00  0.00  0.00 -2.00  1.00  1.00 -2.00  0.00  0.00

     the symmetry operations in each class and the name of the first element:

     E        1
                                                                 
     2C6      5    6
                                                                 
     2C3      7    8
                                                                 
     C2       2
                                                                 
     3C2'     4   12   11
                                                                 
     3C2''    3    9   10
                                                                 
     i       13
                                                                 
     2S3     17   18
                                                                 
     2S6     19   20
                                                                 
     s_h     14
                                                                 
     3s_d    16   24   23
                                                                 
     3s_v    15   21   22
                                                                 

     Band symmetry, D_6h(6/mmm) point group:

     e(  1 -  1) =    -12.07587  eV     1   --> A_1g           
     e(  2 -  2) =    -12.06237  eV     1   --> B_2u           
     e(  3 -  3) =     18.22174  eV     1   --> B_1g           
     e(  4 -  4) =     18.46091  eV     1   --> A_2u           
     e(  5 -  6) =     35.45702  eV     2   --> E_2g           
     e(  7 -  8) =     35.57882  eV     2   --> E_1u           
     e(  9 -  9) =     40.22959  eV     1   --> A_1g           
     e( 10 - 10) =     42.58335  eV     1   --> B_2u           
     e( 11 - 12) =     50.80579  eV     2   --> E_1u           
     e( 13 - 14) =     50.81869  eV     2   --> E_2g           
     e( 15 - 15) =     54.50660  eV     1   --> B_1g           
     e( 16 - 16) =     59.44651  eV     1   --> A_1g           
     e( 17 - 18) =     66.25079  eV     2   --> E_1g           
     e( 19 - 20) =     66.32647  eV     2   --> E_2u           
     e( 21 - 21) =     69.98716  eV     1   --> A_2u           
     e( 22 - 22) =     70.81505  eV     1   --> B_2u           
     e( 23 - 23) =     70.94983  eV     1   --> A_1g           
     e( 24 - 24) =     74.30507  eV     1   --> B_2u           
     e( 25 - 25) =     87.75883  eV     1   --> B_1g           
     e( 26 - 27) =     88.46598  eV     2   --> E_2u           
     e( 28 - 29) =     88.47578  eV     2   --> E_1g           
     e( 30 - 30) =     88.62665  eV     1   --> A_2u           

 **************************************************************************

 **************************************************************************

                    xk=(   0.05000,   0.02887,   0.00000  )

     point group C_2v (mm2) 
     there are  4 classes
     the character table:

       E     C2    s_v   s_v' 
A_1    1.00  1.00  1.00  1.00
A_2    1.00  1.00 -1.00 -1.00
B_1    1.00 -1.00  1.00 -1.00
B_2    1.00 -1.00 -1.00  1.00

     the symmetry operations in each class and the name of the first element:

     E        1
                                                                 
     C2       2
                                                                 
     s_v      3
                                                                 
     s_v'     4
                                                                 

     Band symmetry, C_2v (mm2)  point group:

     e(  1 -  1) =    -11.93206  eV     1   --> A_1  D_1  S_1  
     e(  2 -  2) =    -11.91866  eV     1   --> A_1  D_1  S_1  
     e(  3 -  3) =     18.32539  eV     1   --> B_2  D_4  S_4  
     e(  4 -  4) =     18.56712  eV     1   --> B_2  D_4  S_4  
     e(  5 -  5) =     34.22709  eV     1   --> A_1  D_1  S_1  
     e(  6 -  6) =     34.25902  eV     1   --> A_1  D_1  S_1  
     e(  7 -  7) =     35.01072  eV     1   --> B_1  D_3  S_3  
     e(  8 -  8) =     35.04746  eV     1   --> B_1  D_3  S_3  
     e(  9 -  9) =     40.73513  eV     1   --> A_1  D_1  S_1  
     e( 10 - 10) =     43.07050  eV     1   --> A_1  D_1  S_1  
     e( 11 - 11) =     50.62199  eV     1   --> A_1  D_1  S_1  
     e( 12 - 12) =     50.64766  eV     1   --> A_1  D_1  S_1  
     e( 13 - 13) =     51.46096  eV     1   --> B_1  D_3  S_3  
     e( 14 - 14) =     51.56554  eV     1   --> B_1  D_3  S_3  
     e( 15 - 15) =     54.60993  eV     1   --> B_2  D_4  S_4  
     e( 16 - 16) =     59.86295  eV     1   --> A_1  D_1  S_1  
     e( 17 - 17) =     65.15482  eV     1   --> B_2  D_4  S_4  
     e( 18 - 18) =     65.34943  eV     1   --> B_2  D_4  S_4  
     e( 19 - 19) =     66.02163  eV     1   --> A_2  D_2  S_2  
     e( 20 - 20) =     66.18054  eV     1   --> A_2  D_2  S_2  
     e( 21 - 21) =     70.35022  eV     1   --> B_2  D_4  S_4  
     e( 22 - 22) =     71.81637  eV     1   --> A_1  D_1  S_1  
     e( 23 - 23) =     72.03539  eV     1   --> A_1  D_1  S_1  
     e( 24 - 24) =     74.72778  eV     1   --> A_1  D_1  S_1  
     e( 25 - 25) =     86.61132  eV     1   --> B_2  D_4  S_4  
     e( 26 - 26) =     87.09862  eV     1   --> B_2  D_4  S_4  
     e( 27 - 27) =     88.77485  eV     1   --> A_2  D_2  S_2  
     e( 28 - 28) =     88.82639  eV     1   --> A_2  D_2  S_2  
     e( 29 - 29) =     90.63768  eV     1   --> B_2  D_4  S_4  
     e( 30 - 30) =     90.99216  eV     1   --> B_2  D_4  S_4  

 **************************************************************************

 **************************************************************************

                    xk=(   0.10000,   0.05774,   0.00000  )

     Band symmetry, C_2v (mm2)  point group:

     e(  1 -  1) =    -11.50159  eV     1   --> A_1  D_1  S_1  
     e(  2 -  2) =    -11.48772  eV     1   --> A_1  D_1  S_1  
     e(  3 -  3) =     18.64627  eV     1   --> B_2  D_4  S_4  
     e(  4 -  4) =     18.88147  eV     1   --> B_2  D_4  S_4  
     e(  5 -  5) =     31.41071  eV     1   --> A_1  D_1  S_1  
     e(  6 -  6) =     31.50149  eV     1   --> A_1  D_1  S_1  
     e(  7 -  7) =     33.88300  eV     1   --> B_1  D_3  S_3  
     e(  8 -  8) =     33.93171  eV     1   --> B_1  D_3  S_3  
     e(  9 -  9) =     41.50094  eV     1   --> A_1  D_1  S_1  
     e( 10 - 10) =     43.74359  eV     1   --> A_1  D_1  S_1  
     e( 11 - 11) =     50.21692  eV     1   --> A_1  D_1  S_1  
     e( 12 - 12) =     50.77722  eV     1   --> A_1  D_1  S_1  
     e( 13 - 13) =     53.54518  eV     1   --> B_1  D_3  S_3  
     e( 14 - 14) =     53.58526  eV     1   --> B_1  D_3  S_3  
     e( 15 - 15) =     54.88899  eV     1   --> B_2  D_4  S_4  
     e( 16 - 16) =     61.12466  eV     1   --> A_1  D_1  S_1  
     e( 17 - 17) =     62.79235  eV     1   --> B_2  D_4  S_4  
     e( 18 - 18) =     63.34995  eV     1   --> B_2  D_4  S_4  
     e( 19 - 19) =     65.78630  eV     1   --> A_2  D_2  S_2  
     e( 20 - 20) =     65.92757  eV     1   --> A_2  D_2  S_2  
     e( 21 - 21) =     71.01572  eV     1   --> B_2  D_4  S_4  
     e( 22 - 22) =     74.17470  eV     1   --> A_1  D_1  S_1  
     e( 23 - 23) =     74.99944  eV     1   --> A_1  D_1  S_1  
     e( 24 - 24) =     76.41016  eV     1   --> A_1  D_1  S_1  
     e( 25 - 25) =     85.72465  eV     1   --> B_2  D_4  S_4  
     e( 26 - 26) =     86.24789  eV     1   --> B_2  D_4  S_4  
     e( 27 - 27) =     89.73898  eV     1   --> A_2  D_2  S_2  
     e( 28 - 28) =     89.98596  eV     1   --> A_2  D_2  S_2  
     e( 29 - 29) =     92.85561  eV     1   --> A_1  D_1  S_1  
     e( 30 - 30) =     94.41152  eV     1   --> B_2  D_4  S_4  

 **************************************************************************

 **************************************************************************

                    xk=(   0.15000,   0.08660,   0.00000  )

     Band symmetry, C_2v (mm2)  point group:

     e(  1 -  1) =    -10.78751  eV     1   --> A_1  D_1  S_1  
     e(  2 -  2) =    -10.77469  eV     1   --> A_1  D_1  S_1  
     e(  3 -  3) =     19.16629  eV     1   --> B_2  D_4  S_4  
     e(  4 -  4) =     19.38985  eV     1   --> B_2  D_4  S_4  
     e(  5 -  5) =     27.94967  eV     1   --> A_1  D_1  S_1  
     e(  6 -  6) =     28.01861  eV     1   --> A_1  D_1  S_1  
     e(  7 -  7) =     32.45621  eV     1   --> B_1  D_3  S_3  
     e(  8 -  8) =     32.51393  eV     1   --> B_1  D_3  S_3  
     e(  9 -  9) =     42.01189  eV     1   --> A_1  D_1  S_1  
     e( 10 - 10) =     43.79422  eV     1   --> A_1  D_1  S_1  
     e( 11 - 11) =     49.88070  eV     1   --> A_1  D_1  S_1  
     e( 12 - 12) =     51.38877  eV     1   --> A_1  D_1  S_1  
     e( 13 - 13) =     55.16601  eV     1   --> B_2  D_4  S_4  
     e( 14 - 14) =     56.43670  eV     1   --> B_1  D_3  S_3  
     e( 15 - 15) =     56.47696  eV     1   --> B_1  D_3  S_3  
     e( 16 - 16) =     59.91279  eV     1   --> B_2  D_4  S_4  
     e( 17 - 17) =     60.97145  eV     1   --> B_2  D_4  S_4  
     e( 18 - 18) =     63.05262  eV     1   --> A_1  D_1  S_1  
     e( 19 - 19) =     65.38737  eV     1   --> A_2  D_2  S_2  
     e( 20 - 20) =     65.54320  eV     1   --> A_2  D_2  S_2  
     e( 21 - 21) =     71.75791  eV     1   --> B_2  D_4  S_4  
     e( 22 - 22) =     76.22925  eV     1   --> A_1  D_1  S_1  
     e( 23 - 23) =     79.21090  eV     1   --> A_1  D_1  S_1  
     e( 24 - 24) =     80.22878  eV     1   --> A_1  D_1  S_1  
     e( 25 - 25) =     84.98511  eV     1   --> B_2  D_4  S_4  
     e( 26 - 26) =     85.58072  eV     1   --> B_2  D_4  S_4  
     e( 27 - 27) =     90.77968  eV     1   --> A_1  D_1  S_1  
     e( 28 - 28) =     91.24264  eV     1   --> A_2  D_2  S_2  
     e( 29 - 29) =     91.54883  eV     1   --> A_2  D_2  S_2  
     e( 30 - 30) =     95.53398  eV     1   --> A_1  D_1  S_1  

 **************************************************************************

 **************************************************************************

                    xk=(   0.20000,   0.11547,   0.00000  )

     Band symmetry, C_2v (mm2)  point group:

     e(  1 -  1) =     -9.79993  eV     1   --> A_1  D_1  S_1  
     e(  2 -  2) =     -9.78651  eV     1   --> A_1  D_1  S_1  
     e(  3 -  3) =     19.85972  eV     1   --> B_2  D_4  S_4  
     e(  4 -  4) =     20.06483  eV     1   --> B_2  D_4  S_4  
     e(  5 -  5) =     24.20834  eV     1   --> A_1  D_1  S_1  
     e(  6 -  6) =     24.22629  eV     1   --> A_1  D_1  S_1  
     e(  7 -  7) =     30.99124  eV     1   --> B_1  D_3  S_3  
     e(  8 -  8) =     31.04036  eV     1   --> B_1  D_3  S_3  
     e(  9 -  9) =     42.15554  eV     1   --> A_1  D_1  S_1  
     e( 10 - 10) =     43.35635  eV     1   --> A_1  D_1  S_1  
     e( 11 - 11) =     49.90448  eV     1   --> A_1  D_1  S_1  
     e( 12 - 12) =     52.48717  eV     1   --> A_1  D_1  S_1  
     e( 13 - 13) =     54.72082  eV     1   --> B_2  D_4  S_4  
     e( 14 - 14) =     56.71846  eV     1   --> B_2  D_4  S_4  
     e( 15 - 15) =     59.36503  eV     1   --> B_2  D_4  S_4  
     e( 16 - 16) =     59.92662  eV     1   --> B_1  D_3  S_3  
     e( 17 - 17) =     59.98284  eV     1   --> B_1  D_3  S_3  
     e( 18 - 18) =     64.86117  eV     1   --> A_2  D_2  S_2  
     e( 19 - 19) =     65.08261  eV     1   --> A_2  D_2  S_2  
     e( 20 - 20) =     65.40694  eV     1   --> A_1  D_1  S_1  
     e( 21 - 21) =     72.60667  eV     1   --> B_2  D_4  S_4  
     e( 22 - 22) =     78.17600  eV     1   --> A_1  D_1  S_1  
     e( 23 - 23) =     83.64425  eV     1   --> A_1  D_1  S_1  
     e( 24 - 24) =     84.21419  eV     1   --> B_2  D_4  S_4  
     e( 25 - 25) =     84.88254  eV     1   --> B_2  D_4  S_4  
     e( 26 - 26) =     85.02971  eV     1   --> A_1  D_1  S_1  
     e( 27 - 27) =     87.72811  eV     1   --> A_1  D_1  S_1  
     e( 28 - 28) =     92.66155  eV     1   --> A_1  D_1  S_1  
     e( 29 - 29) =     93.11443  eV     1   --> A_2  D_2  S_2  
     e( 30 - 30) =     93.56517  eV     1   --> A_2  D_2  S_2  

 **************************************************************************

 **************************************************************************

                    xk=(   0.25000,   0.14434,   0.00000  )

     Band symmetry, C_2v (mm2)  point group:

     e(  1 -  1) =     -8.54538  eV     1   --> A_1  D_1  S_1  
     e(  2 -  2) =     -8.53253  eV     1   --> A_1  D_1  S_1  
     e(  3 -  3) =     20.46432  eV     1   --> A_1  D_1  S_1  
     e(  4 -  4) =     20.48979  eV     1   --> A_1  D_1  S_1  
     e(  5 -  5) =     20.68959  eV     1   --> B_2  D_4  S_4  
     e(  6 -  6) =     20.87283  eV     1   --> B_2  D_4  S_4  
     e(  7 -  7) =     29.64612  eV     1   --> B_1  D_3  S_3  
     e(  8 -  8) =     29.70836  eV     1   --> B_1  D_3  S_3  
     e(  9 -  9) =     41.95976  eV     1   --> A_1  D_1  S_1  
     e( 10 - 10) =     42.70462  eV     1   --> A_1  D_1  S_1  
     e( 11 - 11) =     50.62004  eV     1   --> A_1  D_1  S_1  
     e( 12 - 12) =     52.91448  eV     1   --> B_2  D_4  S_4  
     e( 13 - 13) =     53.81164  eV     1   --> B_2  D_4  S_4  
     e( 14 - 14) =     54.01639  eV     1   --> A_1  D_1  S_1  
     e( 15 - 15) =     59.58744  eV     1   --> B_2  D_4  S_4  
     e( 16 - 16) =     63.95345  eV     1   --> B_1  D_3  S_3  
     e( 17 - 17) =     64.11595  eV     1   --> B_1  D_3  S_3  
     e( 18 - 18) =     64.44532  eV     1   --> A_2  D_2  S_2  
     e( 19 - 19) =     64.65275  eV     1   --> A_2  D_2  S_2  
     e( 20 - 20) =     68.03375  eV     1   --> A_1  D_1  S_1  
     e( 21 - 21) =     73.58085  eV     1   --> B_2  D_4  S_4  
     e( 22 - 22) =     79.55172  eV     1   --> A_1  D_1  S_1  
     e( 23 - 23) =     83.41766  eV     1   --> B_2  D_4  S_4  
     e( 24 - 24) =     83.59233  eV     1   --> A_1  D_1  S_1  
     e( 25 - 25) =     84.31863  eV     1   --> B_2  D_4  S_4  
     e( 26 - 26) =     87.12941  eV     1   --> A_1  D_1  S_1  
     e( 27 - 27) =     90.41849  eV     1   --> B_2  D_4  S_4  
     e( 28 - 28) =     90.46304  eV     1   --> A_1  D_1  S_1  
     e( 29 - 29) =     92.26165  eV     1   --> A_1  D_1  S_1  
     e( 30 - 30) =     94.67509  eV     1   --> B_1  D_3  S_3  

 **************************************************************************

 **************************************************************************

                    xk=(   0.30000,   0.17321,   0.00000  )

     Band symmetry, C_2v (mm2)  point group:

     e(  1 -  1) =     -7.03976  eV     1   --> A_1  D_1  S_1  
     e(  2 -  2) =     -7.03433  eV     1   --> A_1  D_1  S_1  
     e(  3 -  3) =     16.78349  eV     1   --> A_1  D_1  S_1  
     e(  4 -  4) =     16.82000  eV     1   --> A_1  D_1  S_1  
     e(  5 -  5) =     21.59903  eV     1   --> B_2  D_4  S_4  
     e(  6 -  6) =     21.78124  eV     1   --> B_2  D_4  S_4  
     e(  7 -  7) =     28.48522  eV     1   --> B_1  D_3  S_3  
     e(  8 -  8) =     28.54870  eV     1   --> B_1  D_3  S_3  
     e(  9 -  9) =     41.61905  eV     1   --> A_1  D_1  S_1  
     e( 10 - 10) =     42.00474  eV     1   --> A_1  D_1  S_1  
     e( 11 - 11) =     50.63982  eV     1   --> B_2  D_4  S_4  
     e( 12 - 12) =     51.16605  eV     1   --> B_2  D_4  S_4  
     e( 13 - 13) =     51.93196  eV     1   --> A_1  D_1  S_1  
     e( 14 - 14) =     55.73702  eV     1   --> A_1  D_1  S_1  
     e( 15 - 15) =     60.83120  eV     1   --> B_2  D_4  S_4  
     e( 16 - 16) =     64.03676  eV     1   --> A_2  D_2  S_2  
     e( 17 - 17) =     64.22619  eV     1   --> A_2  D_2  S_2  
     e( 18 - 18) =     68.40874  eV     1   --> B_1  D_3  S_3  
     e( 19 - 19) =     68.50110  eV     1   --> B_1  D_3  S_3  
     e( 20 - 20) =     70.75914  eV     1   --> A_1  D_1  S_1  
     e( 21 - 21) =     74.70980  eV     1   --> B_2  D_4  S_4  
     e( 22 - 22) =     77.84457  eV     1   --> A_1  D_1  S_1  
     e( 23 - 23) =     82.46690  eV     1   --> B_2  D_4  S_4  
     e( 24 - 24) =     82.85897  eV     1   --> A_1  D_1  S_1  
     e( 25 - 25) =     83.75455  eV     1   --> B_2  D_4  S_4  
     e( 26 - 26) =     86.65518  eV     1   --> A_1  D_1  S_1  
     e( 27 - 27) =     86.90722  eV     1   --> B_2  D_4  S_4  
     e( 28 - 28) =     93.12818  eV     1   --> A_1  D_1  S_1  
     e( 29 - 29) =     93.63707  eV     1   --> B_1  D_3  S_3  
     e( 30 - 30) =     95.53081  eV     1   --> B_2  D_4  S_4  

 **************************************************************************

 **************************************************************************

                    xk=(   0.35000,   0.20207,   0.00000  )

     Band symmetry, C_2v (mm2)  point group:

     e(  1 -  1) =     -5.33524  eV     1   --> A_1  D_1  S_1  
     e(  2 -  2) =     -5.32995  eV     1   --> A_1  D_1  S_1  
     e(  3 -  3) =     13.35227  eV     1   --> A_1  D_1  S_1  
     e(  4 -  4) =     13.37800  eV     1   --> A_1  D_1  S_1  
     e(  5 -  5) =     22.51094  eV     1   --> B_2  D_4  S_4  
     e(  6 -  6) =     22.65561  eV     1   --> B_2  D_4  S_4  
     e(  7 -  7) =     27.55707  eV     1   --> B_1  D_3  S_3  
     e(  8 -  8) =     27.61772  eV     1   --> B_1  D_3  S_3  
     e(  9 -  9) =     41.15920  eV     1   --> A_1  D_1  S_1  
     e( 10 - 10) =     41.39277  eV     1   --> A_1  D_1  S_1  
     e( 11 - 11) =     48.48917  eV     1   --> B_2  D_4  S_4  
     e( 12 - 12) =     48.86956  eV     1   --> B_2  D_4  S_4  
     e( 13 - 13) =     53.58185  eV     1   --> A_1  D_1  S_1  
     e( 14 - 14) =     57.57345  eV     1   --> A_1  D_1  S_1  
     e( 15 - 15) =     62.57005  eV     1   --> B_2  D_4  S_4  
     e( 16 - 16) =     63.68688  eV     1   --> A_2  D_2  S_2  
     e( 17 - 17) =     63.86229  eV     1   --> A_2  D_2  S_2  
     e( 18 - 18) =     72.88948  eV     1   --> A_1  D_1  S_1  
     e( 19 - 19) =     73.02305  eV     1   --> B_1  D_3  S_3  
     e( 20 - 20) =     73.15563  eV     1   --> B_1  D_3  S_3  
     e( 21 - 21) =     74.87933  eV     1   --> A_1  D_1  S_1  
     e( 22 - 22) =     75.42575  eV     1   --> B_2  D_4  S_4  
     e( 23 - 23) =     81.16171  eV     1   --> B_2  D_4  S_4  
     e( 24 - 24) =     81.55409  eV     1   --> A_1  D_1  S_1  
     e( 25 - 25) =     83.22233  eV     1   --> B_2  D_4  S_4  
     e( 26 - 26) =     84.55647  eV     1   --> B_2  D_4  S_4  
     e( 27 - 27) =     88.30883  eV     1   --> A_1  D_1  S_1  
     e( 28 - 28) =     92.76769  eV     1   --> B_1  D_3  S_3  
     e( 29 - 29) =     93.18098  eV     1   --> B_2  D_4  S_4  
     e( 30 - 30) =     94.13370  eV     1   --> A_1  D_1  S_1  

 **************************************************************************

 **************************************************************************

                    xk=(   0.40000,   0.23094,   0.00000  )

     Band symmetry, C_2v (mm2)  point group:

     e(  1 -  1) =     -3.51663  eV     1   --> A_1  D_1  S_1  
     e(  2 -  2) =     -3.51452  eV     1   --> A_1  D_1  S_1  
     e(  3 -  3) =     10.29060  eV     1   --> A_1  D_1  S_1  
     e(  4 -  4) =     10.30788  eV     1   --> A_1  D_1  S_1  
     e(  5 -  5) =     23.31585  eV     1   --> B_2  D_4  S_4  
     e(  6 -  6) =     23.42079  eV     1   --> B_2  D_4  S_4  
     e(  7 -  7) =     26.87117  eV     1   --> B_1  D_3  S_3  
     e(  8 -  8) =     26.93413  eV     1   --> B_1  D_3  S_3  
     e(  9 -  9) =     40.74252  eV     1   --> A_1  D_1  S_1  
     e( 10 - 10) =     40.89229  eV     1   --> A_1  D_1  S_1  
     e( 11 - 11) =     46.73423  eV     1   --> B_2  D_4  S_4  
     e( 12 - 12) =     47.08403  eV     1   --> B_2  D_4  S_4  
     e( 13 - 13) =     55.52954  eV     1   --> A_1  D_1  S_1  
     e( 14 - 14) =     59.18982  eV     1   --> A_1  D_1  S_1  
     e( 15 - 15) =     63.44177  eV     1   --> A_2  D_2  S_2  
     e( 16 - 16) =     63.59109  eV     1   --> A_2  D_2  S_2  
     e( 17 - 17) =     64.66625  eV     1   --> B_2  D_4  S_4  
     e( 18 - 18) =     71.86545  eV     1   --> A_1  D_1  S_1  
     e( 19 - 19) =     73.81631  eV     1   --> A_1  D_1  S_1  
     e( 20 - 20) =     74.75190  eV     1   --> B_2  D_4  S_4  
     e( 21 - 21) =     77.83160  eV     1   --> B_1  D_3  S_3  
     e( 22 - 22) =     78.16749  eV     1   --> B_1  D_3  S_3  
     e( 23 - 23) =     80.36028  eV     1   --> B_2  D_4  S_4  
     e( 24 - 24) =     81.48413  eV     1   --> A_1  D_1  S_1  
     e( 25 - 25) =     82.70923  eV     1   --> B_2  D_4  S_4  
     e( 26 - 26) =     83.79966  eV     1   --> B_2  D_4  S_4  
     e( 27 - 27) =     90.60296  eV     1   --> B_2  D_4  S_4  
     e( 28 - 28) =     90.79312  eV     1   --> A_1  D_1  S_1  
     e( 29 - 29) =     91.99364  eV     1   --> B_1  D_3  S_3  
     e( 30 - 30) =     94.05697  eV     1   --> A_1  D_1  S_1  

 **************************************************************************

 **************************************************************************

                    xk=(   0.45000,   0.25981,   0.00000  )

     Band symmetry, C_2v (mm2)  point group:

     e(  1 -  1) =     -1.85731  eV     1   --> A_1  D_1  S_1  
     e(  2 -  2) =     -1.84622  eV     1   --> A_1  D_1  S_1  
     e(  3 -  3) =      7.85864  eV     1   --> A_1  D_1  S_1  
     e(  4 -  4) =      7.87280  eV     1   --> A_1  D_1  S_1  
     e(  5 -  5) =     23.89453  eV     1   --> B_2  D_4  S_4  
     e(  6 -  6) =     23.94031  eV     1   --> B_2  D_4  S_4  
     e(  7 -  7) =     26.46105  eV     1   --> B_1  D_3  S_3  
     e(  8 -  8) =     26.51180  eV     1   --> B_1  D_3  S_3  
     e(  9 -  9) =     40.49483  eV     1   --> A_1  D_1  S_1  
     e( 10 - 10) =     40.58095  eV     1   --> A_1  D_1  S_1  
     e( 11 - 11) =     45.56885  eV     1   --> B_2  D_4  S_4  
     e( 12 - 12) =     45.91650  eV     1   --> B_2  D_4  S_4  
     e( 13 - 13) =     57.45528  eV     1   --> A_1  D_1  S_1  
     e( 14 - 14) =     60.04055  eV     1   --> A_1  D_1  S_1  
     e( 15 - 15) =     63.27979  eV     1   --> A_2  D_2  S_2  
     e( 16 - 16) =     63.41210  eV     1   --> A_2  D_2  S_2  
     e( 17 - 17) =     67.08830  eV     1   --> B_2  D_4  S_4  
     e( 18 - 18) =     70.17514  eV     1   --> A_1  D_1  S_1  
     e( 19 - 19) =     72.44537  eV     1   --> B_2  D_4  S_4  
     e( 20 - 20) =     72.55091  eV     1   --> A_1  D_1  S_1  
     e( 21 - 21) =     80.61553  eV     1   --> B_2  D_4  S_4  
     e( 22 - 22) =     82.31854  eV     1   --> B_2  D_4  S_4  
     e( 23 - 23) =     82.52898  eV     1   --> B_1  D_3  S_3  
     e( 24 - 24) =     83.01885  eV     1   --> B_1  D_3  S_3  
     e( 25 - 25) =     83.43935  eV     1   --> A_1  D_1  S_1  
     e( 26 - 26) =     84.26923  eV     1   --> B_2  D_4  S_4  
     e( 27 - 27) =     88.09996  eV     1   --> B_2  D_4  S_4  
     e( 28 - 28) =     91.13307  eV     1   --> B_1  D_3  S_3  
     e( 29 - 29) =     91.40520  eV     1   --> A_1  D_1  S_1  
     e( 30 - 30) =     93.32558  eV     1   --> A_1  D_1  S_1  

 **************************************************************************

 **************************************************************************

                    xk=(   0.50000,   0.28868,   0.00000  )

     point group D_2h (mmm) 
     there are  8 classes
     the character table:

       E     C2    C2'   C2''  i     s_v   s_v'  s_v''
A_g    1.00  1.00  1.00  1.00  1.00  1.00  1.00  1.00
B_1g   1.00  1.00 -1.00 -1.00  1.00  1.00 -1.00 -1.00
B_2g   1.00 -1.00  1.00 -1.00  1.00 -1.00  1.00 -1.00
B_3g   1.00 -1.00 -1.00  1.00  1.00 -1.00 -1.00  1.00
A_u    1.00  1.00  1.00  1.00 -1.00 -1.00 -1.00 -1.00
B_1u   1.00  1.00 -1.00 -1.00 -1.00 -1.00  1.00  1.00
B_2u   1.00 -1.00  1.00 -1.00 -1.00  1.00 -1.00  1.00
B_3u   1.00 -1.00 -1.00  1.00 -1.00  1.00  1.00 -1.00

     the symmetry operations in each class and the name of the first element:

     E        1
                                                                 
     C2       2
                                                                 
     C2'      4
                                                                 
     C2''     3
                                                                 
     i        5
                                                                 
     s_v      6
                                                                 
     s_v'     8
                                                                 
     s_v''    7
                                                                 

     Band symmetry, D_2h (mmm)  point group:

     e(  1 -  1) =     -1.07170  eV     1   --> B_3u           
     e(  2 -  2) =     -1.06028  eV     1   --> A_g            
     e(  3 -  3) =      6.81745  eV     1   --> B_3u           
     e(  4 -  4) =      6.83470  eV     1   --> A_g            
     e(  5 -  5) =     24.10122  eV     1   --> B_1u           
     e(  6 -  6) =     24.14578  eV     1   --> B_2g           
     e(  7 -  7) =     26.28176  eV     1   --> B_2u           
     e(  8 -  8) =     26.34144  eV     1   --> B_1g           
     e(  9 -  9) =     40.42035  eV     1   --> B_3u           
     e( 10 - 10) =     40.44950  eV     1   --> A_g            
     e( 11 - 11) =     45.18643  eV     1   --> B_2g           
     e( 12 - 12) =     45.48434  eV     1   --> B_1u           
     e( 13 - 13) =     58.70719  eV     1   --> A_g            
     e( 14 - 14) =     59.91443  eV     1   --> B_3u           
     e( 15 - 15) =     63.22368  eV     1   --> A_u            
     e( 16 - 16) =     63.29723  eV     1   --> B_3g           
     e( 17 - 17) =     69.36673  eV     1   --> B_1u           
     e( 18 - 18) =     69.77144  eV     1   --> B_3u           
     e( 19 - 19) =     70.11968  eV     1   --> B_2g           
     e( 20 - 20) =     71.69236  eV     1   --> A_g            
     e( 21 - 21) =     80.78000  eV     1   --> B_1u           
     e( 22 - 22) =     82.19426  eV     1   --> B_2g           
     e( 23 - 23) =     85.18155  eV     1   --> B_2u           
     e( 24 - 24) =     85.27458  eV     1   --> B_3u           
     e( 25 - 25) =     85.77925  eV     1   --> B_2g           
     e( 26 - 26) =     85.82029  eV     1   --> B_1g           
     e( 27 - 27) =     85.84600  eV     1   --> B_1u           
     e( 28 - 28) =     89.74660  eV     1   --> A_g            
     e( 29 - 29) =     90.14924  eV     1   --> B_2u           
     e( 30 - 30) =     92.30703  eV     1   --> B_1g           

 **************************************************************************

 **************************************************************************

                    xk=(   0.51667,   0.33679,   0.00000  )

     point group C_s (m)    
     there are  2 classes
     the character table:

       E     s    
A'     1.00  1.00
A''    1.00 -1.00

     the symmetry operations in each class and the name of the first element:

     E        1
                                                                 
     s        2
                                                                 

     Band symmetry, C_s (m)     point group:

     e(  1 -  1) =     -1.40142  eV     1   --> A'             
     e(  2 -  2) =     -1.39232  eV     1   --> A'             
     e(  3 -  3) =      7.34555  eV     1   --> A'             
     e(  4 -  4) =      7.35895  eV     1   --> A'             
     e(  5 -  5) =     24.02501  eV     1   --> A''            
     e(  6 -  6) =     24.07269  eV     1   --> A''            
     e(  7 -  7) =     25.93733  eV     1   --> A'             
     e(  8 -  8) =     25.94804  eV     1   --> A'             
     e(  9 -  9) =     40.98948  eV     1   --> A'             
     e( 10 - 10) =     41.03896  eV     1   --> A'             
     e( 11 - 11) =     45.36056  eV     1   --> A''            
     e( 12 - 12) =     45.68973  eV     1   --> A''            
     e( 13 - 13) =     58.08306  eV     1   --> A'             
     e( 14 - 14) =     60.07903  eV     1   --> A'             
     e( 15 - 15) =     63.12790  eV     1   --> A''            
     e( 16 - 16) =     63.19379  eV     1   --> A''            
     e( 17 - 17) =     68.00662  eV     1   --> A''            
     e( 18 - 18) =     69.97873  eV     1   --> A'             
     e( 19 - 19) =     71.64369  eV     1   --> A''            
     e( 20 - 20) =     72.10561  eV     1   --> A'             
     e( 21 - 21) =     80.83334  eV     1   --> A''            
     e( 22 - 22) =     82.38453  eV     1   --> A''            
     e( 23 - 23) =     82.72447  eV     1   --> A'             
     e( 24 - 24) =     83.74013  eV     1   --> A'             
     e( 25 - 25) =     84.82713  eV     1   --> A''            
     e( 26 - 26) =     84.84945  eV     1   --> A'             
     e( 27 - 27) =     87.36929  eV     1   --> A''            
     e( 28 - 28) =     89.93048  eV     1   --> A'             
     e( 29 - 29) =     90.38548  eV     1   --> A'             
     e( 30 - 30) =     92.51593  eV     1   --> A'             

 **************************************************************************

 **************************************************************************

                    xk=(   0.53333,   0.38490,   0.00000  )

     Band symmetry, C_s (m)     point group:

     e(  1 -  1) =     -2.19549  eV     1   --> A'             
     e(  2 -  2) =     -2.18814  eV     1   --> A'             
     e(  3 -  3) =      8.72107  eV     1   --> A'             
     e(  4 -  4) =      8.73130  eV     1   --> A'             
     e(  5 -  5) =     23.80648  eV     1   --> A''            
     e(  6 -  6) =     23.88244  eV     1   --> A''            
     e(  7 -  7) =     24.90459  eV     1   --> A'             
     e(  8 -  8) =     24.92047  eV     1   --> A'             
     e(  9 -  9) =     42.54976  eV     1   --> A'             
     e( 10 - 10) =     42.61012  eV     1   --> A'             
     e( 11 - 11) =     45.86445  eV     1   --> A''            
     e( 12 - 12) =     46.22157  eV     1   --> A''            
     e( 13 - 13) =     57.01776  eV     1   --> A'             
     e( 14 - 14) =     59.89922  eV     1   --> A'             
     e( 15 - 15) =     62.77039  eV     1   --> A''            
     e( 16 - 16) =     62.80393  eV     1   --> A''            
     e( 17 - 17) =     66.56748  eV     1   --> A''            
     e( 18 - 18) =     70.82400  eV     1   --> A'             
     e( 19 - 19) =     72.72547  eV     1   --> A'             
     e( 20 - 20) =     73.55287  eV     1   --> A''            
     e( 21 - 21) =     78.70293  eV     1   --> A'             
     e( 22 - 22) =     79.76838  eV     1   --> A'             
     e( 23 - 23) =     80.71601  eV     1   --> A''            
     e( 24 - 24) =     82.90171  eV     1   --> A''            
     e( 25 - 25) =     83.65973  eV     1   --> A'             
     e( 26 - 26) =     84.65180  eV     1   --> A''            
     e( 27 - 27) =     89.06044  eV     1   --> A'             
     e( 28 - 28) =     89.17362  eV     1   --> A''            
     e( 29 - 29) =     90.69419  eV     1   --> A'             
     e( 30 - 30) =     93.34185  eV     1   --> A'             

 **************************************************************************

 **************************************************************************

                    xk=(   0.55000,   0.43301,   0.00000  )

     Band symmetry, C_s (m)     point group:

     e(  1 -  1) =     -3.13194  eV     1   --> A'             
     e(  2 -  2) =     -3.12609  eV     1   --> A'             
     e(  3 -  3) =     10.60897  eV     1   --> A'             
     e(  4 -  4) =     10.63395  eV     1   --> A'             
     e(  5 -  5) =     23.49910  eV     1   --> A''            
     e(  6 -  6) =     23.58069  eV     1   --> A'             
     e(  7 -  7) =     23.60762  eV     1   --> A'             
     e(  8 -  8) =     23.61279  eV     1   --> A''            
     e(  9 -  9) =     44.64256  eV     1   --> A'             
     e( 10 - 10) =     44.84644  eV     1   --> A'             
     e( 11 - 11) =     46.69826  eV     1   --> A''            
     e( 12 - 12) =     47.01391  eV     1   --> A''            
     e( 13 - 13) =     55.97538  eV     1   --> A'             
     e( 14 - 14) =     59.18953  eV     1   --> A'             
     e( 15 - 15) =     62.18141  eV     1   --> A''            
     e( 16 - 16) =     62.38320  eV     1   --> A''            
     e( 17 - 17) =     65.44212  eV     1   --> A''            
     e( 18 - 18) =     71.41827  eV     1   --> A'             
     e( 19 - 19) =     72.30212  eV     1   --> A'             
     e( 20 - 20) =     74.99661  eV     1   --> A'             
     e( 21 - 21) =     75.33038  eV     1   --> A''            
     e( 22 - 22) =     77.52428  eV     1   --> A'             
     e( 23 - 23) =     80.62676  eV     1   --> A''            
     e( 24 - 24) =     82.36233  eV     1   --> A'             
     e( 25 - 25) =     83.60797  eV     1   --> A''            
     e( 26 - 26) =     85.32801  eV     1   --> A''            
     e( 27 - 27) =     87.89671  eV     1   --> A'             
     e( 28 - 28) =     90.35009  eV     1   --> A'             
     e( 29 - 29) =     91.13593  eV     1   --> A''            
     e( 30 - 30) =     93.92821  eV     1   --> A''            

 **************************************************************************

 **************************************************************************

                    xk=(   0.56667,   0.48113,   0.00000  )

     Band symmetry, C_s (m)     point group:

     e(  1 -  1) =     -4.03950  eV     1   --> A'             
     e(  2 -  2) =     -4.03370  eV     1   --> A'             
     e(  3 -  3) =     12.77290  eV     1   --> A'             
     e(  4 -  4) =     12.78903  eV     1   --> A'             
     e(  5 -  5) =     22.24379  eV     1   --> A'             
     e(  6 -  6) =     22.27978  eV     1   --> A'             
     e(  7 -  7) =     23.13998  eV     1   --> A''            
     e(  8 -  8) =     23.28305  eV     1   --> A''            
     e(  9 -  9) =     46.87278  eV     1   --> A'             
     e( 10 - 10) =     47.30142  eV     1   --> A'             
     e( 11 - 11) =     47.57939  eV     1   --> A''            
     e( 12 - 12) =     47.93990  eV     1   --> A''            
     e( 13 - 13) =     55.11974  eV     1   --> A'             
     e( 14 - 14) =     57.91993  eV     1   --> A'             
     e( 15 - 15) =     61.56316  eV     1   --> A''            
     e( 16 - 16) =     61.99495  eV     1   --> A''            
     e( 17 - 17) =     64.57519  eV     1   --> A''            
     e( 18 - 18) =     67.73225  eV     1   --> A'             
     e( 19 - 19) =     70.83581  eV     1   --> A'             
     e( 20 - 20) =     74.65727  eV     1   --> A'             
     e( 21 - 21) =     76.36142  eV     1   --> A''            
     e( 22 - 22) =     77.93329  eV     1   --> A'             
     e( 23 - 23) =     81.11043  eV     1   --> A''            
     e( 24 - 24) =     81.16060  eV     1   --> A'             
     e( 25 - 25) =     84.36415  eV     1   --> A''            
     e( 26 - 26) =     86.41362  eV     1   --> A''            
     e( 27 - 27) =     86.94417  eV     1   --> A'             
     e( 28 - 28) =     89.69611  eV     1   --> A'             
     e( 29 - 29) =     92.82553  eV     1   --> A''            
     e( 30 - 30) =     93.36646  eV     1   --> A''            

 **************************************************************************

 **************************************************************************

                    xk=(   0.58333,   0.52924,   0.00000  )

     Band symmetry, C_s (m)     point group:

     e(  1 -  1) =     -4.82282  eV     1   --> A'             
     e(  2 -  2) =     -4.81474  eV     1   --> A'             
     e(  3 -  3) =     14.95568  eV     1   --> A'             
     e(  4 -  4) =     14.96750  eV     1   --> A'             
     e(  5 -  5) =     21.18529  eV     1   --> A'             
     e(  6 -  6) =     21.23723  eV     1   --> A'             
     e(  7 -  7) =     22.79171  eV     1   --> A''            
     e(  8 -  8) =     22.94989  eV     1   --> A''            
     e(  9 -  9) =     48.43488  eV     1   --> A''            
     e( 10 - 10) =     48.64132  eV     1   --> A'             
     e( 11 - 11) =     48.82936  eV     1   --> A''            
     e( 12 - 12) =     49.65294  eV     1   --> A'             
     e( 13 - 13) =     54.70186  eV     1   --> A'             
     e( 14 - 14) =     56.12632  eV     1   --> A'             
     e( 15 - 15) =     61.07889  eV     1   --> A''            
     e( 16 - 16) =     61.82481  eV     1   --> A''            
     e( 17 - 17) =     63.96808  eV     1   --> A''            
     e( 18 - 18) =     64.09399  eV     1   --> A'             
     e( 19 - 19) =     67.87180  eV     1   --> A'             
     e( 20 - 20) =     76.49543  eV     1   --> A''            
     e( 21 - 21) =     76.82230  eV     1   --> A'             
     e( 22 - 22) =     78.34968  eV     1   --> A'             
     e( 23 - 23) =     80.31109  eV     1   --> A'             
     e( 24 - 24) =     82.27133  eV     1   --> A''            
     e( 25 - 25) =     84.88838  eV     1   --> A''            
     e( 26 - 26) =     86.68539  eV     1   --> A'             
     e( 27 - 27) =     87.50739  eV     1   --> A''            
     e( 28 - 28) =     89.11024  eV     1   --> A'             
     e( 29 - 29) =     92.79760  eV     1   --> A''            
     e( 30 - 30) =     93.24064  eV     1   --> A'             

 **************************************************************************

 **************************************************************************

                    xk=(   0.60000,   0.57735,   0.00000  )

     point group C_2v (mm2) 
     there are  4 classes
     the character table:

       E     C2    s_v   s_v' 
A_1    1.00  1.00  1.00  1.00
A_2    1.00  1.00 -1.00 -1.00
B_1    1.00 -1.00  1.00 -1.00
B_2    1.00 -1.00 -1.00  1.00

     the symmetry operations in each class and the name of the first element:

     E        1
                                                                 
     C2       2
                                                                 
     s_v      4
                                                                 
     s_v'     3
                                                                 

     Band symmetry, C_2v (mm2)  point group:

     e(  1 -  1) =     -5.43628  eV     1   --> A_1  D_1  S_1  
     e(  2 -  2) =     -5.42817  eV     1   --> B_2  D_4  S_4  
     e(  3 -  3) =     16.45413  eV     1   --> A_1  D_1  S_1  
     e(  4 -  4) =     16.46549  eV     1   --> B_2  D_4  S_4  
     e(  5 -  5) =     21.07252  eV     1   --> A_1  D_1  S_1  
     e(  6 -  6) =     21.14246  eV     1   --> B_2  D_4  S_4  
     e(  7 -  7) =     22.49113  eV     1   --> A_2  D_2  S_2  
     e(  8 -  8) =     22.66179  eV     1   --> B_1  D_3  S_3  
     e(  9 -  9) =     48.91505  eV     1   --> A_1  D_1  S_1  
     e( 10 - 10) =     49.16316  eV     1   --> A_2  D_2  S_2  
     e( 11 - 11) =     49.55249  eV     1   --> B_1  D_3  S_3  
     e( 12 - 12) =     50.67078  eV     1   --> B_2  D_4  S_4  
     e( 13 - 13) =     54.51570  eV     1   --> A_1  D_1  S_1  
     e( 14 - 14) =     54.75214  eV     1   --> B_2  D_4  S_4  
     e( 15 - 15) =     60.94239  eV     1   --> A_2  D_2  S_2  
     e( 16 - 16) =     61.93552  eV     1   --> B_1  D_3  S_3  
     e( 17 - 17) =     62.13373  eV     1   --> A_1  D_1  S_1  
     e( 18 - 18) =     63.60219  eV     1   --> A_2  D_2  S_2  
     e( 19 - 19) =     66.45666  eV     1   --> B_2  D_4  S_4  
     e( 20 - 20) =     76.21993  eV     1   --> B_1  D_3  S_3  
     e( 21 - 21) =     77.29079  eV     1   --> A_1  D_1  S_1  
     e( 22 - 22) =     79.61789  eV     1   --> A_1  D_1  S_1  
     e( 23 - 23) =     79.71387  eV     1   --> B_2  D_4  S_4  
     e( 24 - 24) =     83.16342  eV     1   --> A_2  D_2  S_2  
     e( 25 - 25) =     85.32553  eV     1   --> B_1  D_3  S_3  
     e( 26 - 26) =     87.15285  eV     1   --> B_2  D_4  S_4  
     e( 27 - 27) =     88.16052  eV     1   --> B_1  D_3  S_3  
     e( 28 - 28) =     89.02665  eV     1   --> A_1  D_1  S_1  
     e( 29 - 29) =     92.32210  eV     1   --> B_2  D_4  S_4  
     e( 30 - 30) =     93.03086  eV     1   --> A_2  D_2  S_2  

 **************************************************************************

 **************************************************************************

                    xk=(   0.61667,   0.62546,   0.00000  )

     point group C_s (m)    
     there are  2 classes
     the character table:

       E     s    
A'     1.00  1.00
A''    1.00 -1.00

     the symmetry operations in each class and the name of the first element:

     E        1
                                                                 
     s        2
                                                                 

     Band symmetry, C_s (m)     point group:

     e(  1 -  1) =     -5.86478  eV     1   --> A'             
     e(  2 -  2) =     -5.85504  eV     1   --> A'             
     e(  3 -  3) =     16.49171  eV     1   --> A'             
     e(  4 -  4) =     16.49807  eV     1   --> A'             
     e(  5 -  5) =     22.26432  eV     1   --> A''            
     e(  6 -  6) =     22.42088  eV     1   --> A''            
     e(  7 -  7) =     22.61999  eV     1   --> A'             
     e(  8 -  8) =     22.67511  eV     1   --> A'             
     e(  9 -  9) =     47.43762  eV     1   --> A'             
     e( 10 - 10) =     48.58340  eV     1   --> A'             
     e( 11 - 11) =     49.51070  eV     1   --> A''            
     e( 12 - 12) =     49.93609  eV     1   --> A''            
     e( 13 - 13) =     53.76238  eV     1   --> A'             
     e( 14 - 14) =     55.25844  eV     1   --> A'             
     e( 15 - 15) =     61.02848  eV     1   --> A''            
     e( 16 - 16) =     62.38937  eV     1   --> A''            
     e( 17 - 17) =     63.01450  eV     1   --> A'             
     e( 18 - 18) =     63.45383  eV     1   --> A''            
     e( 19 - 19) =     66.60022  eV     1   --> A'             
     e( 20 - 20) =     75.78010  eV     1   --> A''            
     e( 21 - 21) =     76.24538  eV     1   --> A'             
     e( 22 - 22) =     78.74687  eV     1   --> A'             
     e( 23 - 23) =     81.52575  eV     1   --> A'             
     e( 24 - 24) =     83.06787  eV     1   --> A''            
     e( 25 - 25) =     85.29440  eV     1   --> A''            
     e( 26 - 26) =     87.61385  eV     1   --> A'             
     e( 27 - 27) =     88.03603  eV     1   --> A''            
     e( 28 - 28) =     89.62468  eV     1   --> A'             
     e( 29 - 29) =     91.53625  eV     1   --> A'             
     e( 30 - 30) =     93.44434  eV     1   --> A''            

 **************************************************************************

 **************************************************************************

                    xk=(   0.63333,   0.67358,   0.00000  )

     Band symmetry, C_s (m)     point group:

     e(  1 -  1) =     -6.08839  eV     1   --> A'             
     e(  2 -  2) =     -6.08199  eV     1   --> A'             
     e(  3 -  3) =     15.82700  eV     1   --> A'             
     e(  4 -  4) =     15.85773  eV     1   --> A'             
     e(  5 -  5) =     22.13576  eV     1   --> A''            
     e(  6 -  6) =     22.29806  eV     1   --> A''            
     e(  7 -  7) =     24.95086  eV     1   --> A'             
     e(  8 -  8) =     24.97012  eV     1   --> A'             
     e(  9 -  9) =     44.88567  eV     1   --> A'             
     e( 10 - 10) =     45.46720  eV     1   --> A'             
     e( 11 - 11) =     49.60498  eV     1   --> A''            
     e( 12 - 12) =     50.03769  eV     1   --> A''            
     e( 13 - 13) =     53.11274  eV     1   --> A'             
     e( 14 - 14) =     56.04776  eV     1   --> A'             
     e( 15 - 15) =     61.32237  eV     1   --> A''            
     e( 16 - 16) =     63.00747  eV     1   --> A''            
     e( 17 - 17) =     63.57855  eV     1   --> A''            
     e( 18 - 18) =     65.68947  eV     1   --> A'             
     e( 19 - 19) =     68.05840  eV     1   --> A'             
     e( 20 - 20) =     75.07538  eV     1   --> A'             
     e( 21 - 21) =     75.47488  eV     1   --> A''            
     e( 22 - 22) =     77.65961  eV     1   --> A'             
     e( 23 - 23) =     82.39594  eV     1   --> A'             
     e( 24 - 24) =     82.53905  eV     1   --> A''            
     e( 25 - 25) =     84.61654  eV     1   --> A''            
     e( 26 - 26) =     87.00581  eV     1   --> A''            
     e( 27 - 27) =     88.51873  eV     1   --> A'             
     e( 28 - 28) =     89.22252  eV     1   --> A'             
     e( 29 - 29) =     92.72851  eV     1   --> A'             
     e( 30 - 30) =     94.50214  eV     1   --> A''            

 **************************************************************************

 **************************************************************************

                    xk=(   0.65000,   0.72169,   0.00000  )

     Band symmetry, C_s (m)     point group:

     e(  1 -  1) =     -6.10823  eV     1   --> A'             
     e(  2 -  2) =     -6.10338  eV     1   --> A'             
     e(  3 -  3) =     15.09758  eV     1   --> A'             
     e(  4 -  4) =     15.11926  eV     1   --> A'             
     e(  5 -  5) =     22.11783  eV     1   --> A''            
     e(  6 -  6) =     22.27991  eV     1   --> A''            
     e(  7 -  7) =     27.03042  eV     1   --> A'             
     e(  8 -  8) =     27.07940  eV     1   --> A'             
     e(  9 -  9) =     42.43869  eV     1   --> A'             
     e( 10 - 10) =     42.72678  eV     1   --> A'             
     e( 11 - 11) =     49.46782  eV     1   --> A''            
     e( 12 - 12) =     49.89808  eV     1   --> A''            
     e( 13 - 13) =     52.86502  eV     1   --> A'             
     e( 14 - 14) =     56.59079  eV     1   --> A'             
     e( 15 - 15) =     61.64072  eV     1   --> A''            
     e( 16 - 16) =     63.59277  eV     1   --> A''            
     e( 17 - 17) =     63.89660  eV     1   --> A''            
     e( 18 - 18) =     68.79574  eV     1   --> A'             
     e( 19 - 19) =     70.12047  eV     1   --> A'             
     e( 20 - 20) =     73.71707  eV     1   --> A'             
     e( 21 - 21) =     75.27940  eV     1   --> A''            
     e( 22 - 22) =     76.60474  eV     1   --> A'             
     e( 23 - 23) =     81.97670  eV     1   --> A''            
     e( 24 - 24) =     82.27935  eV     1   --> A'             
     e( 25 - 25) =     83.77097  eV     1   --> A''            
     e( 26 - 26) =     85.84226  eV     1   --> A''            
     e( 27 - 27) =     87.77459  eV     1   --> A'             
     e( 28 - 28) =     91.12868  eV     1   --> A'             
     e( 29 - 29) =     94.40198  eV     1   --> A'             
     e( 30 - 30) =     94.47283  eV     1   --> A''            

 **************************************************************************

 **************************************************************************

                    xk=(   0.66667,   0.76980,   0.00000  )

     point group C_2v (mm2) 
     there are  4 classes
     the character table:

       E     C2    s_v   s_v' 
A_1    1.00  1.00  1.00  1.00
A_2    1.00  1.00 -1.00 -1.00
B_1    1.00 -1.00  1.00 -1.00
B_2    1.00 -1.00 -1.00  1.00

     the symmetry operations in each class and the name of the first element:

     E        1
                                                                 
     C2       2
                                                                 
     s_v      4
                                                                 
     s_v'     3
                                                                 

     Band symmetry, C_2v (mm2)  point group:

     e(  1 -  1) =     -5.92273  eV     1   --> A_1  D_1  S_1  
     e(  2 -  2) =     -5.91753  eV     1   --> A_1  D_1  S_1  
     e(  3 -  3) =     14.46009  eV     1   --> A_1  D_1  S_1  
     e(  4 -  4) =     14.48666  eV     1   --> A_1  D_1  S_1  
     e(  5 -  5) =     22.21210  eV     1   --> B_1  D_3  S_3  
     e(  6 -  6) =     22.36900  eV     1   --> B_1  D_3  S_3  
     e(  7 -  7) =     27.83922  eV     1   --> B_2  D_4  S_4  
     e(  8 -  8) =     27.90018  eV     1   --> B_2  D_4  S_4  
     e(  9 -  9) =     41.30367  eV     1   --> A_1  D_1  S_1  
     e( 10 - 10) =     41.58009  eV     1   --> A_1  D_1  S_1  
     e( 11 - 11) =     49.16126  eV     1   --> B_1  D_3  S_3  
     e( 12 - 12) =     49.56532  eV     1   --> B_1  D_3  S_3  
     e( 13 - 13) =     52.98972  eV     1   --> A_1  D_1  S_1  
     e( 14 - 14) =     56.93631  eV     1   --> A_1  D_1  S_1  
     e( 15 - 15) =     61.94563  eV     1   --> B_1  D_3  S_3  
     e( 16 - 16) =     63.79241  eV     1   --> A_2  D_2  S_2  
     e( 17 - 17) =     63.97429  eV     1   --> A_2  D_2  S_2  
     e( 18 - 18) =     71.45816  eV     1   --> B_2  D_4  S_4  
     e( 19 - 19) =     71.57497  eV     1   --> B_2  D_4  S_4  
     e( 20 - 20) =     72.31011  eV     1   --> A_1  D_1  S_1  
     e( 21 - 21) =     75.27125  eV     1   --> B_1  D_3  S_3  
     e( 22 - 22) =     75.84041  eV     1   --> A_1  D_1  S_1  
     e( 23 - 23) =     81.61196  eV     1   --> B_1  D_3  S_3  
     e( 24 - 24) =     81.98622  eV     1   --> A_1  D_1  S_1  
     e( 25 - 25) =     83.34859  eV     1   --> B_1  D_3  S_3  
     e( 26 - 26) =     85.15501  eV     1   --> B_1  D_3  S_3  
     e( 27 - 27) =     87.57136  eV     1   --> A_1  D_1  S_1  
     e( 28 - 28) =     93.04060  eV     1   --> B_2  D_4  S_4  
     e( 29 - 29) =     93.92407  eV     1   --> A_1  D_1  S_1  
     e( 30 - 30) =     94.00826  eV     1   --> B_1  D_3  S_3  

 **************************************************************************

 **************************************************************************

                    xk=(   0.60000,   0.69282,   0.00000  )

     point group C_s (m)    
     there are  2 classes
     the character table:

       E     s    
A'     1.00  1.00
A''    1.00 -1.00

     the symmetry operations in each class and the name of the first element:

     E        1
                                                                 
     s        2
                                                                 

     Band symmetry, C_s (m)     point group:

     e(  1 -  1) =     -4.94039  eV     1   --> A'             
     e(  2 -  2) =     -4.93311  eV     1   --> A'             
     e(  3 -  3) =     13.62435  eV     1   --> A'             
     e(  4 -  4) =     13.64150  eV     1   --> A'             
     e(  5 -  5) =     22.71705  eV     1   --> A''            
     e(  6 -  6) =     22.85802  eV     1   --> A''            
     e(  7 -  7) =     24.29619  eV     1   --> A'             
     e(  8 -  8) =     24.32266  eV     1   --> A'             
     e(  9 -  9) =     44.80275  eV     1   --> A'             
     e( 10 - 10) =     45.18812  eV     1   --> A'             
     e( 11 - 11) =     48.28671  eV     1   --> A''            
     e( 12 - 12) =     48.67107  eV     1   --> A''            
     e( 13 - 13) =     54.12710  eV     1   --> A'             
     e( 14 - 14) =     57.43025  eV     1   --> A'             
     e( 15 - 15) =     61.97328  eV     1   --> A''            
     e( 16 - 16) =     62.72275  eV     1   --> A''            
     e( 17 - 17) =     63.85347  eV     1   --> A''            
     e( 18 - 18) =     68.12481  eV     1   --> A'             
     e( 19 - 19) =     70.73264  eV     1   --> A'             
     e( 20 - 20) =     75.12266  eV     1   --> A'             
     e( 21 - 21) =     75.92154  eV     1   --> A''            
     e( 22 - 22) =     77.09340  eV     1   --> A'             
     e( 23 - 23) =     81.45483  eV     1   --> A''            
     e( 24 - 24) =     81.56275  eV     1   --> A'             
     e( 25 - 25) =     84.22403  eV     1   --> A''            
     e( 26 - 26) =     85.91853  eV     1   --> A''            
     e( 27 - 27) =     88.27430  eV     1   --> A'             
     e( 28 - 28) =     90.05097  eV     1   --> A'             
     e( 29 - 29) =     92.75689  eV     1   --> A'             
     e( 30 - 30) =     93.50176  eV     1   --> A''            

 **************************************************************************

 **************************************************************************

                    xk=(   0.53333,   0.61584,   0.00000  )

     Band symmetry, C_s (m)     point group:

     e(  1 -  1) =     -3.19995  eV     1   --> A'             
     e(  2 -  2) =     -3.19090  eV     1   --> A'             
     e(  3 -  3) =     13.08289  eV     1   --> A'             
     e(  4 -  4) =     13.08775  eV     1   --> A'             
     e(  5 -  5) =     18.85880  eV     1   --> A'             
     e(  6 -  6) =     18.90259  eV     1   --> A'             
     e(  7 -  7) =     23.52258  eV     1   --> A''            
     e(  8 -  8) =     23.64803  eV     1   --> A''            
     e(  9 -  9) =     47.12253  eV     1   --> A''            
     e( 10 - 10) =     47.51065  eV     1   --> A''            
     e( 11 - 11) =     50.84598  eV     1   --> A'             
     e( 12 - 12) =     51.96205  eV     1   --> A'             
     e( 13 - 13) =     56.28437  eV     1   --> A'             
     e( 14 - 14) =     57.18216  eV     1   --> A'             
     e( 15 - 15) =     60.54587  eV     1   --> A''            
     e( 16 - 16) =     60.91839  eV     1   --> A''            
     e( 17 - 17) =     65.22237  eV     1   --> A'             
     e( 18 - 18) =     65.48213  eV     1   --> A''            
     e( 19 - 19) =     69.21098  eV     1   --> A'             
     e( 20 - 20) =     75.55519  eV     1   --> A'             
     e( 21 - 21) =     77.22633  eV     1   --> A''            
     e( 22 - 22) =     77.87609  eV     1   --> A'             
     e( 23 - 23) =     79.19151  eV     1   --> A'             
     e( 24 - 24) =     81.12224  eV     1   --> A''            
     e( 25 - 25) =     83.77564  eV     1   --> A''            
     e( 26 - 26) =     85.42229  eV     1   --> A'             
     e( 27 - 27) =     87.52598  eV     1   --> A''            
     e( 28 - 28) =     88.87612  eV     1   --> A'             
     e( 29 - 29) =     92.41477  eV     1   --> A''            
     e( 30 - 30) =     93.90347  eV     1   --> A''            

 **************************************************************************

 **************************************************************************

                    xk=(   0.46667,   0.53886,   0.00000  )

     Band symmetry, C_s (m)     point group:

     e(  1 -  1) =     -0.97973  eV     1   --> A'             
     e(  2 -  2) =     -0.97560  eV     1   --> A'             
     e(  3 -  3) =     10.81238  eV     1   --> A'             
     e(  4 -  4) =     10.83092  eV     1   --> A'             
     e(  5 -  5) =     16.39998  eV     1   --> A'             
     e(  6 -  6) =     16.41720  eV     1   --> A'             
     e(  7 -  7) =     24.30102  eV     1   --> A''            
     e(  8 -  8) =     24.39222  eV     1   --> A''            
     e(  9 -  9) =     45.82748  eV     1   --> A''            
     e( 10 - 10) =     46.18072  eV     1   --> A''            
     e( 11 - 11) =     53.64926  eV     1   --> A'             
     e( 12 - 12) =     54.51445  eV     1   --> A'             
     e( 13 - 13) =     58.31404  eV     1   --> A'             
     e( 14 - 14) =     59.02726  eV     1   --> A'             
     e( 15 - 15) =     59.64448  eV     1   --> A''            
     e( 16 - 16) =     59.89673  eV     1   --> A''            
     e( 17 - 17) =     67.08948  eV     1   --> A'             
     e( 18 - 18) =     68.14929  eV     1   --> A''            
     e( 19 - 19) =     70.14906  eV     1   --> A'             
     e( 20 - 20) =     73.78305  eV     1   --> A'             
     e( 21 - 21) =     75.31543  eV     1   --> A'             
     e( 22 - 22) =     76.62967  eV     1   --> A''            
     e( 23 - 23) =     77.85983  eV     1   --> A'             
     e( 24 - 24) =     79.86051  eV     1   --> A''            
     e( 25 - 25) =     82.67318  eV     1   --> A''            
     e( 26 - 26) =     83.81927  eV     1   --> A'             
     e( 27 - 27) =     87.73735  eV     1   --> A''            
     e( 28 - 28) =     89.47081  eV     1   --> A'             
     e( 29 - 29) =     91.69318  eV     1   --> A''            
     e( 30 - 30) =     91.70893  eV     1   --> A'             

 **************************************************************************

 **************************************************************************

                    xk=(   0.40000,   0.46188,   0.00000  )

     point group C_2v (mm2) 
     there are  4 classes
     the character table:

       E     C2    s_v   s_v' 
A_1    1.00  1.00  1.00  1.00
A_2    1.00  1.00 -1.00 -1.00
B_1    1.00 -1.00  1.00 -1.00
B_2    1.00 -1.00 -1.00  1.00

     the symmetry operations in each class and the name of the first element:

     E        1
                                                                 
     C2       2
                                                                 
     s_v      4
                                                                 
     s_v'     3
                                                                 

     Band symmetry, C_2v (mm2)  point group:

     e(  1 -  1) =      0.27182  eV     1   --> B_2  D_4  S_4  
     e(  2 -  2) =      0.28698  eV     1   --> A_1  D_1  S_1  
     e(  3 -  3) =      8.28030  eV     1   --> B_2  D_4  S_4  
     e(  4 -  4) =      8.28927  eV     1   --> A_1  D_1  S_1  
     e(  5 -  5) =     17.42326  eV     1   --> A_1  D_1  S_1  
     e(  6 -  6) =     17.45775  eV     1   --> B_2  D_4  S_4  
     e(  7 -  7) =     24.59434  eV     1   --> B_1  D_3  S_3  
     e(  8 -  8) =     24.64273  eV     1   --> A_2  D_2  S_2  
     e(  9 -  9) =     45.19561  eV     1   --> A_2  D_2  S_2  
     e( 10 - 10) =     45.54351  eV     1   --> B_1  D_3  S_3  
     e( 11 - 11) =     51.81382  eV     1   --> B_2  D_4  S_4  
     e( 12 - 12) =     52.07804  eV     1   --> A_1  D_1  S_1  
     e( 13 - 13) =     59.57649  eV     1   --> A_1  D_1  S_1  
     e( 14 - 14) =     59.87846  eV     1   --> B_1  D_3  S_3  
     e( 15 - 15) =     60.01678  eV     1   --> A_2  D_2  S_2  
     e( 16 - 16) =     60.72521  eV     1   --> B_2  D_4  S_4  
     e( 17 - 17) =     71.01437  eV     1   --> A_1  D_1  S_1  
     e( 18 - 18) =     71.49716  eV     1   --> B_1  D_3  S_3  
     e( 19 - 19) =     71.85141  eV     1   --> A_2  D_2  S_2  
     e( 20 - 20) =     71.88405  eV     1   --> B_2  D_4  S_4  
     e( 21 - 21) =     73.18861  eV     1   --> A_1  D_1  S_1  
     e( 22 - 22) =     73.88026  eV     1   --> B_2  D_4  S_4  
     e( 23 - 23) =     79.56089  eV     1   --> B_2  D_4  S_4  
     e( 24 - 24) =     81.44751  eV     1   --> A_2  D_2  S_2  
     e( 25 - 25) =     82.47473  eV     1   --> B_1  D_3  S_3  
     e( 26 - 26) =     83.25013  eV     1   --> A_1  D_1  S_1  
     e( 27 - 27) =     87.49578  eV     1   --> A_1  D_1  S_1  
     e( 28 - 28) =     87.65114  eV     1   --> A_2  D_2  S_2  
     e( 29 - 29) =     89.78633  eV     1   --> B_1  D_3  S_3  
     e( 30 - 30) =     92.07676  eV     1   --> A_2  D_2  S_2  

 **************************************************************************

 **************************************************************************

                    xk=(   0.33333,   0.38490,   0.00000  )

     point group C_s (m)    
     there are  2 classes
     the character table:

       E     s    
A'     1.00  1.00
A''    1.00 -1.00

     the symmetry operations in each class and the name of the first element:

     E        1
                                                                 
     s        2
                                                                 

     Band symmetry, C_s (m)     point group:

     e(  1 -  1) =     -1.89143  eV     1   --> A'             
     e(  2 -  2) =     -1.88351  eV     1   --> A'             
     e(  3 -  3) =     10.26242  eV     1   --> A'             
     e(  4 -  4) =     10.28597  eV     1   --> A'             
     e(  5 -  5) =     19.73004  eV     1   --> A'             
     e(  6 -  6) =     19.76325  eV     1   --> A'             
     e(  7 -  7) =     23.98178  eV     1   --> A''            
     e(  8 -  8) =     24.07649  eV     1   --> A''            
     e(  9 -  9) =     46.13785  eV     1   --> A''            
     e( 10 - 10) =     46.45041  eV     1   --> A''            
     e( 11 - 11) =     49.18083  eV     1   --> A'             
     e( 12 - 12) =     49.57298  eV     1   --> A'             
     e( 13 - 13) =     57.28715  eV     1   --> A'             
     e( 14 - 14) =     59.55782  eV     1   --> A'             
     e( 15 - 15) =     60.78344  eV     1   --> A''            
     e( 16 - 16) =     60.97090  eV     1   --> A''            
     e( 17 - 17) =     67.00290  eV     1   --> A''            
     e( 18 - 18) =     69.49614  eV     1   --> A'             
     e( 19 - 19) =     72.31790  eV     1   --> A'             
     e( 20 - 20) =     73.08567  eV     1   --> A'             
     e( 21 - 21) =     75.51625  eV     1   --> A''            
     e( 22 - 22) =     76.62949  eV     1   --> A'             
     e( 23 - 23) =     80.62334  eV     1   --> A'             
     e( 24 - 24) =     80.88373  eV     1   --> A''            
     e( 25 - 25) =     83.51647  eV     1   --> A''            
     e( 26 - 26) =     85.72009  eV     1   --> A'             
     e( 27 - 27) =     86.89640  eV     1   --> A''            
     e( 28 - 28) =     89.91214  eV     1   --> A'             
     e( 29 - 29) =     91.27096  eV     1   --> A''            
     e( 30 - 30) =     92.14634  eV     1   --> A''            

 **************************************************************************

 **************************************************************************

                    xk=(   0.26667,   0.30792,   0.00000  )

     Band symmetry, C_s (m)     point group:

     e(  1 -  1) =     -5.21423  eV     1   --> A'             
     e(  2 -  2) =     -5.20742  eV     1   --> A'             
     e(  3 -  3) =     14.85333  eV     1   --> A'             
     e(  4 -  4) =     14.88405  eV     1   --> A'             
     e(  5 -  5) =     22.59379  eV     1   --> A''            
     e(  6 -  6) =     22.73868  eV     1   --> A''            
     e(  7 -  7) =     22.86503  eV     1   --> A'             
     e(  8 -  8) =     22.90279  eV     1   --> A'             
     e(  9 -  9) =     46.75224  eV     1   --> A'             
     e( 10 - 10) =     47.47073  eV     1   --> A'             
     e( 11 - 11) =     48.73548  eV     1   --> A''            
     e( 12 - 12) =     49.11078  eV     1   --> A''            
     e( 13 - 13) =     54.09705  eV     1   --> A'             
     e( 14 - 14) =     56.46688  eV     1   --> A'             
     e( 15 - 15) =     61.40776  eV     1   --> A''            
     e( 16 - 16) =     62.30878  eV     1   --> A''            
     e( 17 - 17) =     63.71910  eV     1   --> A''            
     e( 18 - 18) =     65.36767  eV     1   --> A'             
     e( 19 - 19) =     68.44960  eV     1   --> A'             
     e( 20 - 20) =     76.06556  eV     1   --> A''            
     e( 21 - 21) =     76.21380  eV     1   --> A'             
     e( 22 - 22) =     77.68683  eV     1   --> A'             
     e( 23 - 23) =     81.34885  eV     1   --> A'             
     e( 24 - 24) =     82.14853  eV     1   --> A''            
     e( 25 - 25) =     84.80241  eV     1   --> A''            
     e( 26 - 26) =     87.03257  eV     1   --> A''            
     e( 27 - 27) =     87.40780  eV     1   --> A'             
     e( 28 - 28) =     89.80377  eV     1   --> A'             
     e( 29 - 29) =     92.29920  eV     1   --> A'             
     e( 30 - 30) =     93.36331  eV     1   --> A''            

 **************************************************************************

 **************************************************************************

                    xk=(   0.20000,   0.23094,   0.00000  )

     Band symmetry, C_s (m)     point group:

     e(  1 -  1) =     -8.12747  eV     1   --> A'             
     e(  2 -  2) =     -8.11638  eV     1   --> A'             
     e(  3 -  3) =     20.46046  eV     1   --> A'             
     e(  4 -  4) =     20.46598  eV     1   --> A'             
     e(  5 -  5) =     20.95459  eV     1   --> A''            
     e(  6 -  6) =     21.13157  eV     1   --> A''            
     e(  7 -  7) =     26.69221  eV     1   --> A'             
     e(  8 -  8) =     26.72465  eV     1   --> A'             
     e(  9 -  9) =     44.63078  eV     1   --> A'             
     e( 10 - 10) =     45.91469  eV     1   --> A'             
     e( 11 - 11) =     51.63790  eV     1   --> A'             
     e( 12 - 12) =     52.45172  eV     1   --> A''            
     e( 13 - 13) =     53.25802  eV     1   --> A''            
     e( 14 - 14) =     53.50955  eV     1   --> A'             
     e( 15 - 15) =     59.74306  eV     1   --> A''            
     e( 16 - 16) =     60.94960  eV     1   --> A'             
     e( 17 - 17) =     63.27861  eV     1   --> A'             
     e( 18 - 18) =     63.72917  eV     1   --> A''            
     e( 19 - 19) =     64.06253  eV     1   --> A''            
     e( 20 - 20) =     71.05811  eV     1   --> A'             
     e( 21 - 21) =     74.01702  eV     1   --> A''            
     e( 22 - 22) =     81.00445  eV     1   --> A'             
     e( 23 - 23) =     83.80264  eV     1   --> A'             
     e( 24 - 24) =     84.07541  eV     1   --> A''            
     e( 25 - 25) =     85.31103  eV     1   --> A''            
     e( 26 - 26) =     87.26846  eV     1   --> A'             
     e( 27 - 27) =     90.93437  eV     1   --> A''            
     e( 28 - 28) =     91.31509  eV     1   --> A'             
     e( 29 - 29) =     91.71138  eV     1   --> A'             
     e( 30 - 30) =     93.72332  eV     1   --> A'             

 **************************************************************************

 **************************************************************************

                    xk=(   0.13333,   0.15396,   0.00000  )

     Band symmetry, C_s (m)     point group:

     e(  1 -  1) =    -10.29901  eV     1   --> A'             
     e(  2 -  2) =    -10.28627  eV     1   --> A'             
     e(  3 -  3) =     19.51359  eV     1   --> A''            
     e(  4 -  4) =     19.72892  eV     1   --> A''            
     e(  5 -  5) =     26.47257  eV     1   --> A'             
     e(  6 -  6) =     26.55600  eV     1   --> A'             
     e(  7 -  7) =     30.70248  eV     1   --> A'             
     e(  8 -  8) =     30.72709  eV     1   --> A'             
     e(  9 -  9) =     42.89502  eV     1   --> A'             
     e( 10 - 10) =     44.81473  eV     1   --> A'             
     e( 11 - 11) =     50.43914  eV     1   --> A'             
     e( 12 - 12) =     51.43279  eV     1   --> A'             
     e( 13 - 13) =     55.13694  eV     1   --> A''            
     e( 14 - 14) =     56.75673  eV     1   --> A'             
     e( 15 - 15) =     57.89621  eV     1   --> A'             
     e( 16 - 16) =     58.34907  eV     1   --> A''            
     e( 17 - 17) =     59.96384  eV     1   --> A''            
     e( 18 - 18) =     64.90276  eV     1   --> A'             
     e( 19 - 19) =     64.97040  eV     1   --> A''            
     e( 20 - 20) =     65.19560  eV     1   --> A''            
     e( 21 - 21) =     72.22457  eV     1   --> A''            
     e( 22 - 22) =     77.75381  eV     1   --> A'             
     e( 23 - 23) =     81.69123  eV     1   --> A'             
     e( 24 - 24) =     82.53056  eV     1   --> A'             
     e( 25 - 25) =     84.94809  eV     1   --> A''            
     e( 26 - 26) =     85.62977  eV     1   --> A''            
     e( 27 - 27) =     89.86108  eV     1   --> A'             
     e( 28 - 28) =     91.78326  eV     1   --> A''            
     e( 29 - 29) =     92.05155  eV     1   --> A''            
     e( 30 - 30) =     92.98402  eV     1   --> A'             

 **************************************************************************

 **************************************************************************

                    xk=(   0.06667,   0.07698,   0.00000  )

     Band symmetry, C_s (m)     point group:

     e(  1 -  1) =    -11.62894  eV     1   --> A'             
     e(  2 -  2) =    -11.61539  eV     1   --> A'             
     e(  3 -  3) =     18.55344  eV     1   --> A''            
     e(  4 -  4) =     18.78905  eV     1   --> A''            
     e(  5 -  5) =     32.23125  eV     1   --> A'             
     e(  6 -  6) =     32.31240  eV     1   --> A'             
     e(  7 -  7) =     34.08605  eV     1   --> A'             
     e(  8 -  8) =     34.14686  eV     1   --> A'             
     e(  9 -  9) =     41.38979  eV     1   --> A'             
     e( 10 - 10) =     43.70185  eV     1   --> A'             
     e( 11 - 11) =     50.43279  eV     1   --> A'             
     e( 12 - 12) =     50.66338  eV     1   --> A'             
     e( 13 - 13) =     52.84899  eV     1   --> A'             
     e( 14 - 14) =     53.00000  eV     1   --> A'             
     e( 15 - 15) =     54.81307  eV     1   --> A''            
     e( 16 - 16) =     60.79000  eV     1   --> A'             
     e( 17 - 17) =     63.42749  eV     1   --> A''            
     e( 18 - 18) =     63.89193  eV     1   --> A''            
     e( 19 - 19) =     65.94859  eV     1   --> A''            
     e( 20 - 20) =     65.98279  eV     1   --> A''            
     e( 21 - 21) =     70.85646  eV     1   --> A''            
     e( 22 - 22) =     73.61552  eV     1   --> A'             
     e( 23 - 23) =     74.16044  eV     1   --> A'             
     e( 24 - 24) =     75.82444  eV     1   --> A'             
     e( 25 - 25) =     85.96542  eV     1   --> A''            
     e( 26 - 26) =     86.43897  eV     1   --> A''            
     e( 27 - 27) =     89.39713  eV     1   --> A''            
     e( 28 - 28) =     89.57031  eV     1   --> A''            
     e( 29 - 29) =     93.03123  eV     1   --> A'             
     e( 30 - 30) =     93.44244  eV     1   --> A''            

 **************************************************************************

 **************************************************************************

                    xk=(   0.00000,   0.00000,   0.00000  )

     point group D_6h(6/mmm)
     there are 12 classes
     the character table:

       E     2C6   2C3   C2    3C2'  3C2'' i     2S3   2S6   s_h   3s_d  3s_v 
A_1g   1.00  1.00  1.00  1.00  1.00  1.00  1.00  1.00  1.00  1.00  1.00  1.00
A_2g   1.00  1.00  1.00  1.00 -1.00 -1.00  1.00  1.00  1.00  1.00 -1.00 -1.00
B_1g   1.00 -1.00  1.00 -1.00  1.00 -1.00  1.00 -1.00  1.00 -1.00  1.00 -1.00
B_2g   1.00 -1.00  1.00 -1.00 -1.00  1.00  1.00 -1.00  1.00 -1.00 -1.00  1.00
E_1g   2.00  1.00 -1.00 -2.00  0.00  0.00  2.00  1.00 -1.00 -2.00  0.00  0.00
E_2g   2.00 -1.00 -1.00  2.00  0.00  0.00  2.00 -1.00 -1.00  2.00  0.00  0.00
A_1u   1.00  1.00  1.00  1.00  1.00  1.00 -1.00 -1.00 -1.00 -1.00 -1.00 -1.00
A_2u   1.00  1.00  1.00  1.00 -1.00 -1.00 -1.00 -1.00 -1.00 -1.00  1.00  1.00
B_1u   1.00 -1.00  1.00 -1.00  1.00 -1.00 -1.00  1.00 -1.00  1.00 -1.00  1.00
B_2u   1.00 -1.00  1.00 -1.00 -1.00  1.00 -1.00  1.00 -1.00  1.00  1.00 -1.00
E_1u   2.00  1.00 -1.00 -2.00  0.00  0.00 -2.00 -1.00  1.00  2.00  0.00  0.00
E_2u   2.00 -1.00 -1.00  2.00  0.00  0.00 -2.00  1.00  1.00 -2.00  0.00  0.00

     the symmetry operations in each class and the name of the first element:

     E        1
                                                                 
     2C6      5    6
                                                                 
     2C3      7    8
                                                                 
     C2       2
                                                                 
     3C2'     4   12   11
                                                                 
     3C2''    3    9   10
                                                                 
     i       13
                                                                 
     2S3     17   18
                                                                 
     2S6     19   20
                                                                 
     s_h     14
                                                                 
     3s_d    16   24   23
                                                                 
     3s_v    15   21   22
                                                                 

     Band symmetry, D_6h(6/mmm) point group:

     e(  1 -  1) =    -12.07587  eV     1   --> A_1g           
     e(  2 -  2) =    -12.06237  eV     1   --> B_2u           
     e(  3 -  3) =     18.22174  eV     1   --> B_1g           
     e(  4 -  4) =     18.46091  eV     1   --> A_2u           
     e(  5 -  6) =     35.45702  eV     2   --> E_2g           
     e(  7 -  8) =     35.57882  eV     2   --> E_1u           
     e(  9 -  9) =     40.22959  eV     1   --> A_1g           
     e( 10 - 10) =     42.58335  eV     1   --> B_2u           
     e( 11 - 12) =     50.80579  eV     2   --> E_1u           
     e( 13 - 14) =     50.81869  eV     2   --> E_2g           
     e( 15 - 15) =     54.50660  eV     1   --> B_1g           
     e( 16 - 16) =     59.44651  eV     1   --> A_1g           
     e( 17 - 18) =     66.25079  eV     2   --> E_1g           
     e( 19 - 20) =     66.32647  eV     2   --> E_2u           
     e( 21 - 21) =     69.98716  eV     1   --> A_2u           
     e( 22 - 22) =     70.81505  eV     1   --> B_2u           
     e( 23 - 23) =     70.94983  eV     1   --> A_1g           
     e( 24 - 24) =     74.30507  eV     1   --> B_2u           
     e( 25 - 25) =     87.75883  eV     1   --> B_1g           
     e( 26 - 27) =     88.46598  eV     2   --> E_2u           
     e( 28 - 29) =     88.47578  eV     2   --> E_1g           
     e( 30 - 30) =     88.62665  eV     1   --> A_2u           

 **************************************************************************

     BANDS        :      2.11s CPU      2.14s WALL


   This run was terminated on:  17:34:37  13Jul2022            

=------------------------------------------------------------------------------=
   JOB DONE.
=------------------------------------------------------------------------------=
