
     Program PWSCF v.7.0 starts on 13Jul2022 at 17:52: 7 
        Git branch: master
        Last git commit: 28725dfbb9ee577d70cbdc372282dc9039605ca5
        Last git commit date: Tue Dec 21 15:37:27 2021 +0000
        Last git commit subject: Merge branch merge-develop-to-master into mas..

     This program is part of the open-source Quantum ESPRESSO suite
     for quantum simulation of materials; please cite
         "P. Giannozzi et al., J. Phys.:Condens. Matter 21 395502 (2009);
         "P. Giannozzi et al., J. Phys.:Condens. Matter 29 465901 (2017);
         "P. Giannozzi et al., J. Chem. Phys. 152 154105 (2020);
          URL http://www.quantum-espresso.org", 
     in publications or presentations arising from this work. More details at
     http://www.quantum-espresso.org/quote

     Parallel version (MPI), running on    15 processors

     MPI processes distributed on     1 nodes
     R & G space division:  proc/nbgrp/npool/nimage =      15
     747797 MiB available memory on the printing compute node when the environment starts

     Reading input from mos2_nscf.in

     Current dimensions of program PWSCF are:
     Max number of different atomic species (ntypx) = 10
     Max number of k-points (npk) =  40000
     Max angular momentum in pseudopotentials (lmaxx) =  4

     Atomic positions and unit cell read from directory:
     ./out/MoS2.save/
     Atomic positions from file used, from input discarded

     file Mo.pbe-spn-kjpaw_psl.1.0.0.UPF: wavefunction(s)  4S 4D renormalized
     file S.pbe-nl-kjpaw_psl.1.0.0.UPF: wavefunction(s)  3S renormalized

     Subspace diagonalization in iterative solution of the eigenvalue problem:
     a serial algorithm will be used


     Parallelization info
     --------------------
     sticks:   dense  smooth     PW     G-vecs:    dense   smooth      PW
     Min          19      19      6                 1057     1057     184
     Max          23      23      7                 1061     1061     198
     Sum         295     295     91                15905    15905    2885

     Using Slab Decomposition



     bravais-lattice index     =            4
     lattice parameter (alat)  =       6.0288  a.u.
     unit-cell volume          =     716.1818 (a.u.)^3
     number of atoms/cell      =            6
     number of atomic types    =            2
     number of electrons       =        52.00
     number of Kohn-Sham states=           16
     kinetic-energy cutoff     =      30.0000  Ry
     charge density cutoff     =     120.0000  Ry
     Exchange-correlation= SLA  PW   PBX  PBC
                           (   1   4   3   4   0   0   0)

     celldm(1)=   6.028823  celldm(2)=   0.000000  celldm(3)=   4.663803
     celldm(4)=   0.000000  celldm(5)=   0.000000  celldm(6)=   0.000000

     crystal axes: (cart. coord. in units of alat)
               a(1) = (   0.977067   0.000000   0.000000 )  
               a(2) = (  -0.488533   0.846165   0.000000 )  
               a(3) = (   0.000000   0.000000   3.953178 )  

     reciprocal axes: (cart. coord. in units 2 pi/alat)
               b(1) = (  1.023471  0.590901 -0.000000 )  
               b(2) = (  0.000000  1.181803  0.000000 )  
               b(3) = (  0.000000 -0.000000  0.252961 )  


     PseudoPot. # 1 for Mo read from file:
     ./pseudo/Mo.pbe-spn-kjpaw_psl.1.0.0.UPF
     MD5 check sum: 4396e0c640fcce5c25f020efccf1ab12
     Pseudo is Projector augmented-wave + core cor, Zval = 14.0
     Generated using &quot;atomic&quot; code by A. Dal Corso  v.6.3
     Shape of augmentation charge: PSQ
     Using radial grid of 1229 points,  6 beta functions with: 
                l(1) =   0
                l(2) =   0
                l(3) =   1
                l(4) =   1
                l(5) =   2
                l(6) =   2
     Q(r) pseudized with 0 coefficients 


     PseudoPot. # 2 for S  read from file:
     ./pseudo/S.pbe-nl-kjpaw_psl.1.0.0.UPF
     MD5 check sum: a0db168fa6a42edaf368e88c1856b871
     Pseudo is Projector augmented-wave + core cor, Zval =  6.0
     Generated using &quot;atomic&quot; code by A. Dal Corso  v.6.3
     Shape of augmentation charge: PSQ
     Using radial grid of 1151 points,  4 beta functions with: 
                l(1) =   0
                l(2) =   0
                l(3) =   1
                l(4) =   1
     Q(r) pseudized with 0 coefficients 


     atomic species   valence    mass     pseudopotential
        Mo            14.00    95.96000     Mo( 1.00)
        S              6.00    32.06500     S ( 1.00)

     24 Sym. Ops., with inversion, found (12 have fractional translation)


                                    s                        frac. trans.

      isym =  1     identity                                     

 cryst.   s( 1) = (     1          0          0      )
                  (     0          1          0      )
                  (     0          0          1      )

 cart.    s( 1) = (  1.0000000 -0.0000000  0.0000000 )
                  (  0.0000000  1.0000000  0.0000000 )
                  (  0.0000000  0.0000000  1.0000000 )


      isym =  2     180 deg rotation - cart. axis [0,0,1]        

 cryst.   s( 2) = (    -1          0          0      )    f =(  0.0000000 )
                  (     0         -1          0      )       ( -0.0000000 )
                  (     0          0          1      )       ( -0.5000000 )

 cart.    s( 2) = ( -1.0000000  0.0000000  0.0000000 )    f =(  0.0000000 )
                  (  0.0000000 -1.0000000  0.0000000 )       ( -0.0000000 )
                  (  0.0000000  0.0000000  1.0000000 )       ( -1.9765891 )


      isym =  3     180 deg rotation - cart. axis [0,1,0]        

 cryst.   s( 3) = (    -1          0          0      )    f =(  0.0000000 )
                  (     1          1          0      )       (  0.0000000 )
                  (     0          0         -1      )       ( -0.5000000 )

 cart.    s( 3) = ( -1.0000000  0.0000000  0.0000000 )    f =(  0.0000000 )
                  (  0.0000000  1.0000000  0.0000000 )       (  0.0000000 )
                  (  0.0000000  0.0000000 -1.0000000 )       ( -1.9765891 )


      isym =  4     180 deg rotation - cart. axis [1,0,0]        

 cryst.   s( 4) = (     1          0          0      )
                  (    -1         -1          0      )
                  (     0          0         -1      )

 cart.    s( 4) = (  1.0000000 -0.0000000  0.0000000 )
                  (  0.0000000 -1.0000000  0.0000000 )
                  (  0.0000000  0.0000000 -1.0000000 )


      isym =  5      60 deg rotation - cryst. axis [0,0,1]       

 cryst.   s( 5) = (     1          1          0      )    f =(  0.0000000 )
                  (    -1          0          0      )       ( -0.0000000 )
                  (     0          0          1      )       ( -0.5000000 )

 cart.    s( 5) = (  0.5000000 -0.8660254  0.0000000 )    f =(  0.0000000 )
                  (  0.8660254  0.5000000  0.0000000 )       ( -0.0000000 )
                  (  0.0000000  0.0000000  1.0000000 )       ( -1.9765891 )


      isym =  6      60 deg rotation - cryst. axis [0,0,-1]      

 cryst.   s( 6) = (     0         -1          0      )    f =(  0.0000000 )
                  (     1          1          0      )       ( -0.0000000 )
                  (     0          0          1      )       ( -0.5000000 )

 cart.    s( 6) = (  0.5000000  0.8660254  0.0000000 )    f =(  0.0000000 )
                  ( -0.8660254  0.5000000  0.0000000 )       ( -0.0000000 )
                  (  0.0000000  0.0000000  1.0000000 )       ( -1.9765891 )


      isym =  7     120 deg rotation - cryst. axis [0,0,1]       

 cryst.   s( 7) = (     0          1          0      )
                  (    -1         -1          0      )
                  (     0          0          1      )

 cart.    s( 7) = ( -0.5000000 -0.8660254  0.0000000 )
                  (  0.8660254 -0.5000000  0.0000000 )
                  (  0.0000000  0.0000000  1.0000000 )


      isym =  8     120 deg rotation - cryst. axis [0,0,-1]      

 cryst.   s( 8) = (    -1         -1          0      )
                  (     1          0          0      )
                  (     0          0          1      )

 cart.    s( 8) = ( -0.5000000  0.8660254  0.0000000 )
                  ( -0.8660254 -0.5000000  0.0000000 )
                  (  0.0000000  0.0000000  1.0000000 )


      isym =  9     180 deg rotation - cryst. axis [1,-1,0]      

 cryst.   s( 9) = (     0         -1          0      )    f =(  0.0000000 )
                  (    -1          0          0      )       (  0.0000000 )
                  (     0          0         -1      )       ( -0.5000000 )

 cart.    s( 9) = (  0.5000000 -0.8660254  0.0000000 )    f =(  0.0000000 )
                  ( -0.8660254 -0.5000000  0.0000000 )       (  0.0000000 )
                  (  0.0000000  0.0000000 -1.0000000 )       ( -1.9765891 )


      isym = 10     180 deg rotation - cryst. axis [2,1,0]       

 cryst.   s(10) = (     1          1          0      )    f =(  0.0000000 )
                  (     0         -1          0      )       ( -0.0000000 )
                  (     0          0         -1      )       ( -0.5000000 )

 cart.    s(10) = (  0.5000000  0.8660254  0.0000000 )    f =(  0.0000000 )
                  (  0.8660254 -0.5000000  0.0000000 )       ( -0.0000000 )
                  (  0.0000000  0.0000000 -1.0000000 )       ( -1.9765891 )


      isym = 11     180 deg rotation - cryst. axis [0,1,0]       

 cryst.   s(11) = (    -1         -1          0      )
                  (     0          1          0      )
                  (     0          0         -1      )

 cart.    s(11) = ( -0.5000000 -0.8660254  0.0000000 )
                  ( -0.8660254  0.5000000  0.0000000 )
                  (  0.0000000  0.0000000 -1.0000000 )


      isym = 12     180 deg rotation - cryst. axis [1,1,0]       

 cryst.   s(12) = (     0          1          0      )
                  (     1          0          0      )
                  (     0          0         -1      )

 cart.    s(12) = ( -0.5000000  0.8660254  0.0000000 )
                  (  0.8660254  0.5000000  0.0000000 )
                  (  0.0000000  0.0000000 -1.0000000 )


      isym = 13     inversion                                    

 cryst.   s(13) = (    -1          0          0      )
                  (     0         -1          0      )
                  (     0          0         -1      )

 cart.    s(13) = ( -1.0000000  0.0000000  0.0000000 )
                  (  0.0000000 -1.0000000  0.0000000 )
                  (  0.0000000  0.0000000 -1.0000000 )


      isym = 14     inv. 180 deg rotation - cart. axis [0,0,1]   

 cryst.   s(14) = (     1          0          0      )    f =(  0.0000000 )
                  (     0          1          0      )       (  0.0000000 )
                  (     0          0         -1      )       ( -0.5000000 )

 cart.    s(14) = (  1.0000000 -0.0000000  0.0000000 )    f =(  0.0000000 )
                  (  0.0000000  1.0000000  0.0000000 )       (  0.0000000 )
                  (  0.0000000  0.0000000 -1.0000000 )       ( -1.9765891 )


      isym = 15     inv. 180 deg rotation - cart. axis [0,1,0]   

 cryst.   s(15) = (     1          0          0      )    f =(  0.0000000 )
                  (    -1         -1          0      )       ( -0.0000000 )
                  (     0          0          1      )       ( -0.5000000 )

 cart.    s(15) = (  1.0000000 -0.0000000  0.0000000 )    f =(  0.0000000 )
                  (  0.0000000 -1.0000000  0.0000000 )       ( -0.0000000 )
                  (  0.0000000  0.0000000  1.0000000 )       ( -1.9765891 )


      isym = 16     inv. 180 deg rotation - cart. axis [1,0,0]   

 cryst.   s(16) = (    -1          0          0      )
                  (     1          1          0      )
                  (     0          0          1      )

 cart.    s(16) = ( -1.0000000  0.0000000  0.0000000 )
                  (  0.0000000  1.0000000  0.0000000 )
                  (  0.0000000  0.0000000  1.0000000 )


      isym = 17     inv.  60 deg rotation - cryst. axis [0,0,1]  

 cryst.   s(17) = (    -1         -1          0      )    f =(  0.0000000 )
                  (     1          0          0      )       (  0.0000000 )
                  (     0          0         -1      )       ( -0.5000000 )

 cart.    s(17) = ( -0.5000000  0.8660254  0.0000000 )    f =(  0.0000000 )
                  ( -0.8660254 -0.5000000  0.0000000 )       (  0.0000000 )
                  (  0.0000000  0.0000000 -1.0000000 )       ( -1.9765891 )


      isym = 18     inv.  60 deg rotation - cryst. axis [0,0,-1] 

 cryst.   s(18) = (     0          1          0      )    f =(  0.0000000 )
                  (    -1         -1          0      )       ( -0.0000000 )
                  (     0          0         -1      )       ( -0.5000000 )

 cart.    s(18) = ( -0.5000000 -0.8660254  0.0000000 )    f =(  0.0000000 )
                  (  0.8660254 -0.5000000  0.0000000 )       ( -0.0000000 )
                  (  0.0000000  0.0000000 -1.0000000 )       ( -1.9765891 )


      isym = 19     inv. 120 deg rotation - cryst. axis [0,0,1]  

 cryst.   s(19) = (     0         -1          0      )
                  (     1          1          0      )
                  (     0          0         -1      )

 cart.    s(19) = (  0.5000000  0.8660254  0.0000000 )
                  ( -0.8660254  0.5000000  0.0000000 )
                  (  0.0000000  0.0000000 -1.0000000 )


      isym = 20     inv. 120 deg rotation - cryst. axis [0,0,-1] 

 cryst.   s(20) = (     1          1          0      )
                  (    -1          0          0      )
                  (     0          0         -1      )

 cart.    s(20) = (  0.5000000 -0.8660254  0.0000000 )
                  (  0.8660254  0.5000000  0.0000000 )
                  (  0.0000000  0.0000000 -1.0000000 )


      isym = 21     inv. 180 deg rotation - cryst. axis [1,-1,0] 

 cryst.   s(21) = (     0          1          0      )    f =(  0.0000000 )
                  (     1          0          0      )       ( -0.0000000 )
                  (     0          0          1      )       ( -0.5000000 )

 cart.    s(21) = ( -0.5000000  0.8660254  0.0000000 )    f =(  0.0000000 )
                  (  0.8660254  0.5000000  0.0000000 )       ( -0.0000000 )
                  (  0.0000000  0.0000000  1.0000000 )       ( -1.9765891 )


      isym = 22     inv. 180 deg rotation - cryst. axis [2,1,0]  

 cryst.   s(22) = (    -1         -1          0      )    f =(  0.0000000 )
                  (     0          1          0      )       ( -0.0000000 )
                  (     0          0          1      )       ( -0.5000000 )

 cart.    s(22) = ( -0.5000000 -0.8660254  0.0000000 )    f =(  0.0000000 )
                  ( -0.8660254  0.5000000  0.0000000 )       ( -0.0000000 )
                  (  0.0000000  0.0000000  1.0000000 )       ( -1.9765891 )


      isym = 23     inv. 180 deg rotation - cryst. axis [0,1,0]  

 cryst.   s(23) = (     1          1          0      )
                  (     0         -1          0      )
                  (     0          0          1      )

 cart.    s(23) = (  0.5000000  0.8660254  0.0000000 )
                  (  0.8660254 -0.5000000  0.0000000 )
                  (  0.0000000  0.0000000  1.0000000 )


      isym = 24     inv. 180 deg rotation - cryst. axis [1,1,0]  

 cryst.   s(24) = (     0         -1          0      )
                  (    -1          0          0      )
                  (     0          0          1      )

 cart.    s(24) = (  0.5000000 -0.8660254  0.0000000 )
                  ( -0.8660254 -0.5000000  0.0000000 )
                  (  0.0000000  0.0000000  1.0000000 )


     point group D_6h(6/mmm)
     there are 12 classes
     the character table:

       E     2C6   2C3   C2    3C2'  3C2'' i     2S3   2S6   s_h   3s_d  3s_v 
A_1g   1.00  1.00  1.00  1.00  1.00  1.00  1.00  1.00  1.00  1.00  1.00  1.00
A_2g   1.00  1.00  1.00  1.00 -1.00 -1.00  1.00  1.00  1.00  1.00 -1.00 -1.00
B_1g   1.00 -1.00  1.00 -1.00  1.00 -1.00  1.00 -1.00  1.00 -1.00  1.00 -1.00
B_2g   1.00 -1.00  1.00 -1.00 -1.00  1.00  1.00 -1.00  1.00 -1.00 -1.00  1.00
E_1g   2.00  1.00 -1.00 -2.00  0.00  0.00  2.00  1.00 -1.00 -2.00  0.00  0.00
E_2g   2.00 -1.00 -1.00  2.00  0.00  0.00  2.00 -1.00 -1.00  2.00  0.00  0.00
A_1u   1.00  1.00  1.00  1.00  1.00  1.00 -1.00 -1.00 -1.00 -1.00 -1.00 -1.00
A_2u   1.00  1.00  1.00  1.00 -1.00 -1.00 -1.00 -1.00 -1.00 -1.00  1.00  1.00
B_1u   1.00 -1.00  1.00 -1.00  1.00 -1.00 -1.00  1.00 -1.00  1.00 -1.00  1.00
B_2u   1.00 -1.00  1.00 -1.00 -1.00  1.00 -1.00  1.00 -1.00  1.00  1.00 -1.00
E_1u   2.00  1.00 -1.00 -2.00  0.00  0.00 -2.00 -1.00  1.00  2.00  0.00  0.00
E_2u   2.00 -1.00 -1.00  2.00  0.00  0.00 -2.00  1.00  1.00 -2.00  0.00  0.00

     the symmetry operations in each class and the name of the first element:

     E        1
          identity                                               
     2C6      5    6
           60 deg rotation - cryst. axis [0,0,1]                 
     2C3      7    8
          120 deg rotation - cryst. axis [0,0,1]                 
     C2       2
          180 deg rotation - cart. axis [0,0,1]                  
     3C2'     4   12   11
          180 deg rotation - cart. axis [1,0,0]                  
     3C2''    3    9   10
          180 deg rotation - cart. axis [0,1,0]                  
     i       13
          inversion                                              
     2S3     17   18
          inv.  60 deg rotation - cryst. axis [0,0,1]            
     2S6     19   20
          inv. 120 deg rotation - cryst. axis [0,0,1]            
     s_h     14
          inv. 180 deg rotation - cart. axis [0,0,1]             
     3s_d    16   24   23
          inv. 180 deg rotation - cart. axis [1,0,0]             
     3s_v    15   21   22
          inv. 180 deg rotation - cart. axis [0,1,0]             

   Cartesian axes

     site n.     atom                  positions (alat units)
         1           Mo  tau(   1) = (  -0.0000000   0.5641098   0.9882945  )
         2           Mo  tau(   2) = (   0.4885334   0.2820549   2.9648836  )
         3           S   tau(   3) = (  -0.0000000   0.5641098   3.4613457  )
         4           S   tau(   4) = (   0.4885334   0.2820549   0.4918325  )
         5           S   tau(   5) = (   0.4885334   0.2820549   1.4847566  )
         6           S   tau(   6) = (   0.0000000   0.5641098   2.4684216  )

   Crystallographic axes

     site n.     atom                  positions (cryst. coord.)
         1           Mo  tau(   1) = (  0.3333333  0.6666667  0.2500000  )
         2           Mo  tau(   2) = (  0.6666667  0.3333333  0.7500000  )
         3           S   tau(   3) = (  0.3333333  0.6666667  0.8755855  )
         4           S   tau(   4) = (  0.6666667  0.3333333  0.1244145  )
         5           S   tau(   5) = (  0.6666667  0.3333333  0.3755855  )
         6           S   tau(   6) = (  0.3333333  0.6666667  0.6244145  )

     number of k points=   133  Gaussian smearing, width (Ry)=  0.0050
                       cart. coord. in units 2pi/alat
        k(    1) = (   0.0000000   0.0000000   0.0000000), wk =   0.0011574
        k(    2) = (   0.0000000   0.0000000   0.0210801), wk =   0.0023148
        k(    3) = (   0.0000000   0.0000000   0.0421602), wk =   0.0023148
        k(    4) = (   0.0000000   0.0000000   0.0632403), wk =   0.0023148
        k(    5) = (   0.0000000   0.0000000   0.0843203), wk =   0.0023148
        k(    6) = (   0.0000000   0.0000000   0.1054004), wk =   0.0023148
        k(    7) = (   0.0000000   0.0000000  -0.1264805), wk =   0.0011574
        k(    8) = (   0.0000000   0.0984836   0.0000000), wk =   0.0069444
        k(    9) = (   0.0000000   0.0984836   0.0210801), wk =   0.0138889
        k(   10) = (   0.0000000   0.0984836   0.0421602), wk =   0.0138889
        k(   11) = (   0.0000000   0.0984836   0.0632403), wk =   0.0138889
        k(   12) = (   0.0000000   0.0984836   0.0843203), wk =   0.0138889
        k(   13) = (   0.0000000   0.0984836   0.1054004), wk =   0.0138889
        k(   14) = (   0.0000000   0.0984836  -0.1264805), wk =   0.0069444
        k(   15) = (   0.0000000   0.1969672   0.0000000), wk =   0.0069444
        k(   16) = (   0.0000000   0.1969672   0.0210801), wk =   0.0138889
        k(   17) = (   0.0000000   0.1969672   0.0421602), wk =   0.0138889
        k(   18) = (   0.0000000   0.1969672   0.0632403), wk =   0.0138889
        k(   19) = (   0.0000000   0.1969672   0.0843203), wk =   0.0138889
        k(   20) = (   0.0000000   0.1969672   0.1054004), wk =   0.0138889
        k(   21) = (   0.0000000   0.1969672  -0.1264805), wk =   0.0069444
        k(   22) = (   0.0000000   0.2954507   0.0000000), wk =   0.0069444
        k(   23) = (   0.0000000   0.2954507   0.0210801), wk =   0.0138889
        k(   24) = (   0.0000000   0.2954507   0.0421602), wk =   0.0138889
        k(   25) = (   0.0000000   0.2954507   0.0632403), wk =   0.0138889
        k(   26) = (   0.0000000   0.2954507   0.0843203), wk =   0.0138889
        k(   27) = (   0.0000000   0.2954507   0.1054004), wk =   0.0138889
        k(   28) = (   0.0000000   0.2954507  -0.1264805), wk =   0.0069444
        k(   29) = (   0.0000000   0.3939343   0.0000000), wk =   0.0069444
        k(   30) = (   0.0000000   0.3939343   0.0210801), wk =   0.0138889
        k(   31) = (   0.0000000   0.3939343   0.0421602), wk =   0.0138889
        k(   32) = (   0.0000000   0.3939343   0.0632403), wk =   0.0138889
        k(   33) = (   0.0000000   0.3939343   0.0843203), wk =   0.0138889
        k(   34) = (   0.0000000   0.3939343   0.1054004), wk =   0.0138889
        k(   35) = (   0.0000000   0.3939343  -0.1264805), wk =   0.0069444
        k(   36) = (   0.0000000   0.4924179   0.0000000), wk =   0.0069444
        k(   37) = (   0.0000000   0.4924179   0.0210801), wk =   0.0138889
        k(   38) = (   0.0000000   0.4924179   0.0421602), wk =   0.0138889
        k(   39) = (   0.0000000   0.4924179   0.0632403), wk =   0.0138889
        k(   40) = (   0.0000000   0.4924179   0.0843203), wk =   0.0138889
        k(   41) = (   0.0000000   0.4924179   0.1054004), wk =   0.0138889
        k(   42) = (   0.0000000   0.4924179  -0.1264805), wk =   0.0069444
        k(   43) = (   0.0000000  -0.5909015   0.0000000), wk =   0.0034722
        k(   44) = (   0.0000000  -0.5909015   0.0210801), wk =   0.0069444
        k(   45) = (   0.0000000  -0.5909015   0.0421602), wk =   0.0069444
        k(   46) = (   0.0000000  -0.5909015   0.0632403), wk =   0.0069444
        k(   47) = (   0.0000000  -0.5909015   0.0843203), wk =   0.0069444
        k(   48) = (   0.0000000  -0.5909015   0.1054004), wk =   0.0069444
        k(   49) = (   0.0000000  -0.5909015  -0.1264805), wk =   0.0034722
        k(   50) = (   0.0852893   0.1477254   0.0000000), wk =   0.0069444
        k(   51) = (   0.0852893   0.1477254   0.0210801), wk =   0.0138889
        k(   52) = (   0.0852893   0.1477254   0.0421602), wk =   0.0138889
        k(   53) = (   0.0852893   0.1477254   0.0632403), wk =   0.0138889
        k(   54) = (   0.0852893   0.1477254   0.0843203), wk =   0.0138889
        k(   55) = (   0.0852893   0.1477254   0.1054004), wk =   0.0138889
        k(   56) = (   0.0852893   0.1477254  -0.1264805), wk =   0.0069444
        k(   57) = (   0.0852893   0.2462090   0.0000000), wk =   0.0138889
        k(   58) = (   0.0852893   0.2462090   0.0210801), wk =   0.0277778
        k(   59) = (   0.0852893   0.2462090   0.0421602), wk =   0.0277778
        k(   60) = (   0.0852893   0.2462090   0.0632403), wk =   0.0277778
        k(   61) = (   0.0852893   0.2462090   0.0843203), wk =   0.0277778
        k(   62) = (   0.0852893   0.2462090   0.1054004), wk =   0.0277778
        k(   63) = (   0.0852893   0.2462090  -0.1264805), wk =   0.0138889
        k(   64) = (   0.0852893   0.3446925   0.0000000), wk =   0.0138889
        k(   65) = (   0.0852893   0.3446925   0.0210801), wk =   0.0277778
        k(   66) = (   0.0852893   0.3446925   0.0421602), wk =   0.0277778
        k(   67) = (   0.0852893   0.3446925   0.0632403), wk =   0.0277778
        k(   68) = (   0.0852893   0.3446925   0.0843203), wk =   0.0277778
        k(   69) = (   0.0852893   0.3446925   0.1054004), wk =   0.0277778
        k(   70) = (   0.0852893   0.3446925  -0.1264805), wk =   0.0138889
        k(   71) = (   0.0852893   0.4431761   0.0000000), wk =   0.0138889
        k(   72) = (   0.0852893   0.4431761   0.0210801), wk =   0.0277778
        k(   73) = (   0.0852893   0.4431761   0.0421602), wk =   0.0277778
        k(   74) = (   0.0852893   0.4431761   0.0632403), wk =   0.0277778
        k(   75) = (   0.0852893   0.4431761   0.0843203), wk =   0.0277778
        k(   76) = (   0.0852893   0.4431761   0.1054004), wk =   0.0277778
        k(   77) = (   0.0852893   0.4431761  -0.1264805), wk =   0.0138889
        k(   78) = (   0.0852893   0.5416597   0.0000000), wk =   0.0138889
        k(   79) = (   0.0852893   0.5416597   0.0210801), wk =   0.0277778
        k(   80) = (   0.0852893   0.5416597   0.0421602), wk =   0.0277778
        k(   81) = (   0.0852893   0.5416597   0.0632403), wk =   0.0277778
        k(   82) = (   0.0852893   0.5416597   0.0843203), wk =   0.0277778
        k(   83) = (   0.0852893   0.5416597   0.1054004), wk =   0.0277778
        k(   84) = (   0.0852893   0.5416597  -0.1264805), wk =   0.0138889
        k(   85) = (   0.1705786   0.2954507   0.0000000), wk =   0.0069444
        k(   86) = (   0.1705786   0.2954507   0.0210801), wk =   0.0138889
        k(   87) = (   0.1705786   0.2954507   0.0421602), wk =   0.0138889
        k(   88) = (   0.1705786   0.2954507   0.0632403), wk =   0.0138889
        k(   89) = (   0.1705786   0.2954507   0.0843203), wk =   0.0138889
        k(   90) = (   0.1705786   0.2954507   0.1054004), wk =   0.0138889
        k(   91) = (   0.1705786   0.2954507  -0.1264805), wk =   0.0069444
        k(   92) = (   0.1705786   0.3939343   0.0000000), wk =   0.0138889
        k(   93) = (   0.1705786   0.3939343   0.0210801), wk =   0.0277778
        k(   94) = (   0.1705786   0.3939343   0.0421602), wk =   0.0277778
        k(   95) = (   0.1705786   0.3939343   0.0632403), wk =   0.0277778
        k(   96) = (   0.1705786   0.3939343   0.0843203), wk =   0.0277778
        k(   97) = (   0.1705786   0.3939343   0.1054004), wk =   0.0277778
        k(   98) = (   0.1705786   0.3939343  -0.1264805), wk =   0.0138889
        k(   99) = (   0.1705786   0.4924179   0.0000000), wk =   0.0138889
        k(  100) = (   0.1705786   0.4924179   0.0210801), wk =   0.0277778
        k(  101) = (   0.1705786   0.4924179   0.0421602), wk =   0.0277778
        k(  102) = (   0.1705786   0.4924179   0.0632403), wk =   0.0277778
        k(  103) = (   0.1705786   0.4924179   0.0843203), wk =   0.0277778
        k(  104) = (   0.1705786   0.4924179   0.1054004), wk =   0.0277778
        k(  105) = (   0.1705786   0.4924179  -0.1264805), wk =   0.0138889
        k(  106) = (   0.1705786   0.5909015   0.0000000), wk =   0.0069444
        k(  107) = (   0.1705786   0.5909015   0.0210801), wk =   0.0138889
        k(  108) = (   0.1705786   0.5909015   0.0421602), wk =   0.0138889
        k(  109) = (   0.1705786   0.5909015   0.0632403), wk =   0.0138889
        k(  110) = (   0.1705786   0.5909015   0.0843203), wk =   0.0138889
        k(  111) = (   0.1705786   0.5909015   0.1054004), wk =   0.0138889
        k(  112) = (   0.1705786   0.5909015  -0.1264805), wk =   0.0069444
        k(  113) = (   0.2558679   0.4431761   0.0000000), wk =   0.0069444
        k(  114) = (   0.2558679   0.4431761   0.0210801), wk =   0.0138889
        k(  115) = (   0.2558679   0.4431761   0.0421602), wk =   0.0138889
        k(  116) = (   0.2558679   0.4431761   0.0632403), wk =   0.0138889
        k(  117) = (   0.2558679   0.4431761   0.0843203), wk =   0.0138889
        k(  118) = (   0.2558679   0.4431761   0.1054004), wk =   0.0138889
        k(  119) = (   0.2558679   0.4431761  -0.1264805), wk =   0.0069444
        k(  120) = (   0.2558679   0.5416597   0.0000000), wk =   0.0138889
        k(  121) = (   0.2558679   0.5416597   0.0210801), wk =   0.0277778
        k(  122) = (   0.2558679   0.5416597   0.0421602), wk =   0.0277778
        k(  123) = (   0.2558679   0.5416597   0.0632403), wk =   0.0277778
        k(  124) = (   0.2558679   0.5416597   0.0843203), wk =   0.0277778
        k(  125) = (   0.2558679   0.5416597   0.1054004), wk =   0.0277778
        k(  126) = (   0.2558679   0.5416597  -0.1264805), wk =   0.0138889
        k(  127) = (   0.3411571   0.5909015   0.0000000), wk =   0.0023148
        k(  128) = (   0.3411571   0.5909015   0.0210801), wk =   0.0046296
        k(  129) = (   0.3411571   0.5909015   0.0421602), wk =   0.0046296
        k(  130) = (   0.3411571   0.5909015   0.0632403), wk =   0.0046296
        k(  131) = (   0.3411571   0.5909015   0.0843203), wk =   0.0046296
        k(  132) = (   0.3411571   0.5909015   0.1054004), wk =   0.0046296
        k(  133) = (   0.3411571   0.5909015  -0.1264805), wk =   0.0023148

                       cryst. coord.
        k(    1) = (   0.0000000   0.0000000   0.0000000), wk =   0.0011574
        k(    2) = (   0.0000000   0.0000000   0.0833333), wk =   0.0023148
        k(    3) = (   0.0000000   0.0000000   0.1666667), wk =   0.0023148
        k(    4) = (   0.0000000   0.0000000   0.2500000), wk =   0.0023148
        k(    5) = (   0.0000000   0.0000000   0.3333333), wk =   0.0023148
        k(    6) = (   0.0000000   0.0000000   0.4166667), wk =   0.0023148
        k(    7) = (   0.0000000   0.0000000  -0.5000000), wk =   0.0011574
        k(    8) = (   0.0000000   0.0833333   0.0000000), wk =   0.0069444
        k(    9) = (   0.0000000   0.0833333   0.0833333), wk =   0.0138889
        k(   10) = (   0.0000000   0.0833333   0.1666667), wk =   0.0138889
        k(   11) = (   0.0000000   0.0833333   0.2500000), wk =   0.0138889
        k(   12) = (   0.0000000   0.0833333   0.3333333), wk =   0.0138889
        k(   13) = (   0.0000000   0.0833333   0.4166667), wk =   0.0138889
        k(   14) = (   0.0000000   0.0833333  -0.5000000), wk =   0.0069444
        k(   15) = (   0.0000000   0.1666667   0.0000000), wk =   0.0069444
        k(   16) = (   0.0000000   0.1666667   0.0833333), wk =   0.0138889
        k(   17) = (   0.0000000   0.1666667   0.1666667), wk =   0.0138889
        k(   18) = (   0.0000000   0.1666667   0.2500000), wk =   0.0138889
        k(   19) = (   0.0000000   0.1666667   0.3333333), wk =   0.0138889
        k(   20) = (   0.0000000   0.1666667   0.4166667), wk =   0.0138889
        k(   21) = (   0.0000000   0.1666667  -0.5000000), wk =   0.0069444
        k(   22) = (   0.0000000   0.2500000   0.0000000), wk =   0.0069444
        k(   23) = (   0.0000000   0.2500000   0.0833333), wk =   0.0138889
        k(   24) = (   0.0000000   0.2500000   0.1666667), wk =   0.0138889
        k(   25) = (   0.0000000   0.2500000   0.2500000), wk =   0.0138889
        k(   26) = (   0.0000000   0.2500000   0.3333333), wk =   0.0138889
        k(   27) = (   0.0000000   0.2500000   0.4166667), wk =   0.0138889
        k(   28) = (   0.0000000   0.2500000  -0.5000000), wk =   0.0069444
        k(   29) = (   0.0000000   0.3333333   0.0000000), wk =   0.0069444
        k(   30) = (   0.0000000   0.3333333   0.0833333), wk =   0.0138889
        k(   31) = (   0.0000000   0.3333333   0.1666667), wk =   0.0138889
        k(   32) = (   0.0000000   0.3333333   0.2500000), wk =   0.0138889
        k(   33) = (   0.0000000   0.3333333   0.3333333), wk =   0.0138889
        k(   34) = (   0.0000000   0.3333333   0.4166667), wk =   0.0138889
        k(   35) = (   0.0000000   0.3333333  -0.5000000), wk =   0.0069444
        k(   36) = (   0.0000000   0.4166667   0.0000000), wk =   0.0069444
        k(   37) = (   0.0000000   0.4166667   0.0833333), wk =   0.0138889
        k(   38) = (   0.0000000   0.4166667   0.1666667), wk =   0.0138889
        k(   39) = (   0.0000000   0.4166667   0.2500000), wk =   0.0138889
        k(   40) = (   0.0000000   0.4166667   0.3333333), wk =   0.0138889
        k(   41) = (   0.0000000   0.4166667   0.4166667), wk =   0.0138889
        k(   42) = (   0.0000000   0.4166667  -0.5000000), wk =   0.0069444
        k(   43) = (   0.0000000  -0.5000000   0.0000000), wk =   0.0034722
        k(   44) = (   0.0000000  -0.5000000   0.0833333), wk =   0.0069444
        k(   45) = (   0.0000000  -0.5000000   0.1666667), wk =   0.0069444
        k(   46) = (   0.0000000  -0.5000000   0.2500000), wk =   0.0069444
        k(   47) = (   0.0000000  -0.5000000   0.3333333), wk =   0.0069444
        k(   48) = (   0.0000000  -0.5000000   0.4166667), wk =   0.0069444
        k(   49) = (   0.0000000  -0.5000000  -0.5000000), wk =   0.0034722
        k(   50) = (   0.0833333   0.0833333   0.0000000), wk =   0.0069444
        k(   51) = (   0.0833333   0.0833333   0.0833333), wk =   0.0138889
        k(   52) = (   0.0833333   0.0833333   0.1666667), wk =   0.0138889
        k(   53) = (   0.0833333   0.0833333   0.2500000), wk =   0.0138889
        k(   54) = (   0.0833333   0.0833333   0.3333333), wk =   0.0138889
        k(   55) = (   0.0833333   0.0833333   0.4166667), wk =   0.0138889
        k(   56) = (   0.0833333   0.0833333  -0.5000000), wk =   0.0069444
        k(   57) = (   0.0833333   0.1666667   0.0000000), wk =   0.0138889
        k(   58) = (   0.0833333   0.1666667   0.0833333), wk =   0.0277778
        k(   59) = (   0.0833333   0.1666667   0.1666667), wk =   0.0277778
        k(   60) = (   0.0833333   0.1666667   0.2500000), wk =   0.0277778
        k(   61) = (   0.0833333   0.1666667   0.3333333), wk =   0.0277778
        k(   62) = (   0.0833333   0.1666667   0.4166667), wk =   0.0277778
        k(   63) = (   0.0833333   0.1666667  -0.5000000), wk =   0.0138889
        k(   64) = (   0.0833333   0.2500000   0.0000000), wk =   0.0138889
        k(   65) = (   0.0833333   0.2500000   0.0833333), wk =   0.0277778
        k(   66) = (   0.0833333   0.2500000   0.1666667), wk =   0.0277778
        k(   67) = (   0.0833333   0.2500000   0.2500000), wk =   0.0277778
        k(   68) = (   0.0833333   0.2500000   0.3333333), wk =   0.0277778
        k(   69) = (   0.0833333   0.2500000   0.4166667), wk =   0.0277778
        k(   70) = (   0.0833333   0.2500000  -0.5000000), wk =   0.0138889
        k(   71) = (   0.0833333   0.3333333   0.0000000), wk =   0.0138889
        k(   72) = (   0.0833333   0.3333333   0.0833333), wk =   0.0277778
        k(   73) = (   0.0833333   0.3333333   0.1666667), wk =   0.0277778
        k(   74) = (   0.0833333   0.3333333   0.2500000), wk =   0.0277778
        k(   75) = (   0.0833333   0.3333333   0.3333333), wk =   0.0277778
        k(   76) = (   0.0833333   0.3333333   0.4166667), wk =   0.0277778
        k(   77) = (   0.0833333   0.3333333  -0.5000000), wk =   0.0138889
        k(   78) = (   0.0833333   0.4166667   0.0000000), wk =   0.0138889
        k(   79) = (   0.0833333   0.4166667   0.0833333), wk =   0.0277778
        k(   80) = (   0.0833333   0.4166667   0.1666667), wk =   0.0277778
        k(   81) = (   0.0833333   0.4166667   0.2500000), wk =   0.0277778
        k(   82) = (   0.0833333   0.4166667   0.3333333), wk =   0.0277778
        k(   83) = (   0.0833333   0.4166667   0.4166667), wk =   0.0277778
        k(   84) = (   0.0833333   0.4166667  -0.5000000), wk =   0.0138889
        k(   85) = (   0.1666667   0.1666667   0.0000000), wk =   0.0069444
        k(   86) = (   0.1666667   0.1666667   0.0833333), wk =   0.0138889
        k(   87) = (   0.1666667   0.1666667   0.1666667), wk =   0.0138889
        k(   88) = (   0.1666667   0.1666667   0.2500000), wk =   0.0138889
        k(   89) = (   0.1666667   0.1666667   0.3333333), wk =   0.0138889
        k(   90) = (   0.1666667   0.1666667   0.4166667), wk =   0.0138889
        k(   91) = (   0.1666667   0.1666667  -0.5000000), wk =   0.0069444
        k(   92) = (   0.1666667   0.2500000   0.0000000), wk =   0.0138889
        k(   93) = (   0.1666667   0.2500000   0.0833333), wk =   0.0277778
        k(   94) = (   0.1666667   0.2500000   0.1666667), wk =   0.0277778
        k(   95) = (   0.1666667   0.2500000   0.2500000), wk =   0.0277778
        k(   96) = (   0.1666667   0.2500000   0.3333333), wk =   0.0277778
        k(   97) = (   0.1666667   0.2500000   0.4166667), wk =   0.0277778
        k(   98) = (   0.1666667   0.2500000  -0.5000000), wk =   0.0138889
        k(   99) = (   0.1666667   0.3333333   0.0000000), wk =   0.0138889
        k(  100) = (   0.1666667   0.3333333   0.0833333), wk =   0.0277778
        k(  101) = (   0.1666667   0.3333333   0.1666667), wk =   0.0277778
        k(  102) = (   0.1666667   0.3333333   0.2500000), wk =   0.0277778
        k(  103) = (   0.1666667   0.3333333   0.3333333), wk =   0.0277778
        k(  104) = (   0.1666667   0.3333333   0.4166667), wk =   0.0277778
        k(  105) = (   0.1666667   0.3333333  -0.5000000), wk =   0.0138889
        k(  106) = (   0.1666667   0.4166667   0.0000000), wk =   0.0069444
        k(  107) = (   0.1666667   0.4166667   0.0833333), wk =   0.0138889
        k(  108) = (   0.1666667   0.4166667   0.1666667), wk =   0.0138889
        k(  109) = (   0.1666667   0.4166667   0.2500000), wk =   0.0138889
        k(  110) = (   0.1666667   0.4166667   0.3333333), wk =   0.0138889
        k(  111) = (   0.1666667   0.4166667   0.4166667), wk =   0.0138889
        k(  112) = (   0.1666667   0.4166667  -0.5000000), wk =   0.0069444
        k(  113) = (   0.2500000   0.2500000   0.0000000), wk =   0.0069444
        k(  114) = (   0.2500000   0.2500000   0.0833333), wk =   0.0138889
        k(  115) = (   0.2500000   0.2500000   0.1666667), wk =   0.0138889
        k(  116) = (   0.2500000   0.2500000   0.2500000), wk =   0.0138889
        k(  117) = (   0.2500000   0.2500000   0.3333333), wk =   0.0138889
        k(  118) = (   0.2500000   0.2500000   0.4166667), wk =   0.0138889
        k(  119) = (   0.2500000   0.2500000  -0.5000000), wk =   0.0069444
        k(  120) = (   0.2500000   0.3333333   0.0000000), wk =   0.0138889
        k(  121) = (   0.2500000   0.3333333   0.0833333), wk =   0.0277778
        k(  122) = (   0.2500000   0.3333333   0.1666667), wk =   0.0277778
        k(  123) = (   0.2500000   0.3333333   0.2500000), wk =   0.0277778
        k(  124) = (   0.2500000   0.3333333   0.3333333), wk =   0.0277778
        k(  125) = (   0.2500000   0.3333333   0.4166667), wk =   0.0277778
        k(  126) = (   0.2500000   0.3333333  -0.5000000), wk =   0.0138889
        k(  127) = (   0.3333333   0.3333333   0.0000000), wk =   0.0023148
        k(  128) = (   0.3333333   0.3333333   0.0833333), wk =   0.0046296
        k(  129) = (   0.3333333   0.3333333   0.1666667), wk =   0.0046296
        k(  130) = (   0.3333333   0.3333333   0.2500000), wk =   0.0046296
        k(  131) = (   0.3333333   0.3333333   0.3333333), wk =   0.0046296
        k(  132) = (   0.3333333   0.3333333   0.4166667), wk =   0.0046296
        k(  133) = (   0.3333333   0.3333333  -0.5000000), wk =   0.0023148

     Dense  grid:    15905 G-vectors     FFT dimensions: (  24,  24,  90)

     Dynamical RAM for                 wfc:       0.03 MB

     Dynamical RAM for     wfc (w. buffer):       0.03 MB

     Dynamical RAM for           str. fact:       0.03 MB

     Dynamical RAM for           local pot:       0.00 MB

     Dynamical RAM for          nlocal pot:       0.14 MB

     Dynamical RAM for                qrad:       1.76 MB

     Dynamical RAM for          rho,v,vnew:       0.13 MB

     Dynamical RAM for           G-vectors:       0.07 MB

     Dynamical RAM for          h,s,v(r/c):       0.05 MB

     Dynamical RAM for          <psi|beta>:       0.02 MB

     Dynamical RAM for                 psi:       0.06 MB

     Dynamical RAM for                hpsi:       0.06 MB

     Dynamical RAM for                spsi:       0.06 MB

     Dynamical RAM for      wfcinit/wfcrot:       0.17 MB

     Dynamical RAM for           addusdens:       3.07 MB

     Estimated static dynamical RAM per process >       2.34 MB

     Estimated max dynamical RAM per process >       5.41 MB

     Estimated total dynamical RAM >      81.18 MB

     Check: negative core charge=   -0.000014

     The potential is recalculated from file :
     ./out/MoS2.save/charge-density

     Starting wfcs are   36 randomized atomic wfcs
     Checking if some PAW data can be deallocated... 
       PAW data deallocated on    9 nodes for type:  1
       PAW data deallocated on    6 nodes for type:  2

     Band Structure Calculation
     Davidson diagonalization with overlap

     Computing kpt #:     1  of   133
     c_bands:  1 eigenvalues not converged
     total cpu time spent up to now is        0.7 secs

     Computing kpt #:     2  of   133
     total cpu time spent up to now is        0.8 secs

     Computing kpt #:     3  of   133
     total cpu time spent up to now is        0.9 secs

     Computing kpt #:     4  of   133
     total cpu time spent up to now is        1.0 secs

     Computing kpt #:     5  of   133
     total cpu time spent up to now is        1.1 secs

     Computing kpt #:     6  of   133
     c_bands:  2 eigenvalues not converged
     total cpu time spent up to now is        1.2 secs

     Computing kpt #:     7  of   133
     total cpu time spent up to now is        1.2 secs

     Computing kpt #:     8  of   133
     c_bands:  1 eigenvalues not converged
     total cpu time spent up to now is        1.3 secs

     Computing kpt #:     9  of   133
     c_bands:  1 eigenvalues not converged
     total cpu time spent up to now is        1.4 secs

     Computing kpt #:    10  of   133
     c_bands:  1 eigenvalues not converged
     total cpu time spent up to now is        1.5 secs

     Computing kpt #:    11  of   133
     c_bands:  1 eigenvalues not converged
     total cpu time spent up to now is        1.6 secs

     Computing kpt #:    12  of   133
     c_bands:  1 eigenvalues not converged
     total cpu time spent up to now is        1.7 secs

     Computing kpt #:    13  of   133
     total cpu time spent up to now is        1.8 secs

     Computing kpt #:    14  of   133
     total cpu time spent up to now is        1.8 secs

     Computing kpt #:    15  of   133
     total cpu time spent up to now is        1.9 secs

     Computing kpt #:    16  of   133
     total cpu time spent up to now is        2.0 secs

     Computing kpt #:    17  of   133
     total cpu time spent up to now is        2.1 secs

     Computing kpt #:    18  of   133
     total cpu time spent up to now is        2.1 secs

     Computing kpt #:    19  of   133
     total cpu time spent up to now is        2.2 secs

     Computing kpt #:    20  of   133
     total cpu time spent up to now is        2.3 secs

     Computing kpt #:    21  of   133
     total cpu time spent up to now is        2.3 secs

     Computing kpt #:    22  of   133
     total cpu time spent up to now is        2.4 secs

     Computing kpt #:    23  of   133
     total cpu time spent up to now is        2.4 secs

     Computing kpt #:    24  of   133
     total cpu time spent up to now is        2.5 secs

     Computing kpt #:    25  of   133
     total cpu time spent up to now is        2.5 secs

     Computing kpt #:    26  of   133
     total cpu time spent up to now is        2.6 secs

     Computing kpt #:    27  of   133
     total cpu time spent up to now is        2.6 secs

     Computing kpt #:    28  of   133
     total cpu time spent up to now is        2.7 secs

     Computing kpt #:    29  of   133
     total cpu time spent up to now is        2.8 secs

     Computing kpt #:    30  of   133
     total cpu time spent up to now is        2.8 secs

     Computing kpt #:    31  of   133
     total cpu time spent up to now is        2.9 secs

     Computing kpt #:    32  of   133
     total cpu time spent up to now is        3.0 secs

     Computing kpt #:    33  of   133
     total cpu time spent up to now is        3.0 secs

     Computing kpt #:    34  of   133
     total cpu time spent up to now is        3.1 secs

     Computing kpt #:    35  of   133
     total cpu time spent up to now is        3.1 secs

     Computing kpt #:    36  of   133
     total cpu time spent up to now is        3.2 secs

     Computing kpt #:    37  of   133
     total cpu time spent up to now is        3.2 secs

     Computing kpt #:    38  of   133
     total cpu time spent up to now is        3.2 secs

     Computing kpt #:    39  of   133
     total cpu time spent up to now is        3.3 secs

     Computing kpt #:    40  of   133
     total cpu time spent up to now is        3.3 secs

     Computing kpt #:    41  of   133
     total cpu time spent up to now is        3.4 secs

     Computing kpt #:    42  of   133
     total cpu time spent up to now is        3.4 secs

     Computing kpt #:    43  of   133
     total cpu time spent up to now is        3.5 secs

     Computing kpt #:    44  of   133
     total cpu time spent up to now is        3.5 secs

     Computing kpt #:    45  of   133
     total cpu time spent up to now is        3.6 secs

     Computing kpt #:    46  of   133
     total cpu time spent up to now is        3.6 secs

     Computing kpt #:    47  of   133
     total cpu time spent up to now is        3.6 secs

     Computing kpt #:    48  of   133
     total cpu time spent up to now is        3.7 secs

     Computing kpt #:    49  of   133
     total cpu time spent up to now is        3.7 secs

     Computing kpt #:    50  of   133
     total cpu time spent up to now is        3.8 secs

     Computing kpt #:    51  of   133
     total cpu time spent up to now is        3.9 secs

     Computing kpt #:    52  of   133
     total cpu time spent up to now is        4.0 secs

     Computing kpt #:    53  of   133
     c_bands:  1 eigenvalues not converged
     total cpu time spent up to now is        4.1 secs

     Computing kpt #:    54  of   133
     total cpu time spent up to now is        4.2 secs

     Computing kpt #:    55  of   133
     total cpu time spent up to now is        4.2 secs

     Computing kpt #:    56  of   133
     total cpu time spent up to now is        4.3 secs

     Computing kpt #:    57  of   133
     total cpu time spent up to now is        4.3 secs

     Computing kpt #:    58  of   133
     total cpu time spent up to now is        4.4 secs

     Computing kpt #:    59  of   133
     total cpu time spent up to now is        4.5 secs

     Computing kpt #:    60  of   133
     total cpu time spent up to now is        4.5 secs

     Computing kpt #:    61  of   133
     total cpu time spent up to now is        4.6 secs

     Computing kpt #:    62  of   133
     total cpu time spent up to now is        4.6 secs

     Computing kpt #:    63  of   133
     total cpu time spent up to now is        4.7 secs

     Computing kpt #:    64  of   133
     total cpu time spent up to now is        4.8 secs

     Computing kpt #:    65  of   133
     total cpu time spent up to now is        4.8 secs

     Computing kpt #:    66  of   133
     total cpu time spent up to now is        4.9 secs

     Computing kpt #:    67  of   133
     total cpu time spent up to now is        5.0 secs

     Computing kpt #:    68  of   133
     total cpu time spent up to now is        5.0 secs

     Computing kpt #:    69  of   133
     total cpu time spent up to now is        5.1 secs

     Computing kpt #:    70  of   133
     total cpu time spent up to now is        5.1 secs

     Computing kpt #:    71  of   133
     total cpu time spent up to now is        5.2 secs

     Computing kpt #:    72  of   133
     total cpu time spent up to now is        5.2 secs

     Computing kpt #:    73  of   133
     total cpu time spent up to now is        5.3 secs

     Computing kpt #:    74  of   133
     total cpu time spent up to now is        5.3 secs

     Computing kpt #:    75  of   133
     total cpu time spent up to now is        5.4 secs

     Computing kpt #:    76  of   133
     total cpu time spent up to now is        5.4 secs

     Computing kpt #:    77  of   133
     total cpu time spent up to now is        5.4 secs

     Computing kpt #:    78  of   133
     total cpu time spent up to now is        5.5 secs

     Computing kpt #:    79  of   133
     total cpu time spent up to now is        5.5 secs

     Computing kpt #:    80  of   133
     total cpu time spent up to now is        5.6 secs

     Computing kpt #:    81  of   133
     total cpu time spent up to now is        5.6 secs

     Computing kpt #:    82  of   133
     total cpu time spent up to now is        5.7 secs

     Computing kpt #:    83  of   133
     total cpu time spent up to now is        5.7 secs

     Computing kpt #:    84  of   133
     total cpu time spent up to now is        5.8 secs

     Computing kpt #:    85  of   133
     total cpu time spent up to now is        5.8 secs

     Computing kpt #:    86  of   133
     total cpu time spent up to now is        5.9 secs

     Computing kpt #:    87  of   133
     total cpu time spent up to now is        6.0 secs

     Computing kpt #:    88  of   133
     total cpu time spent up to now is        6.0 secs

     Computing kpt #:    89  of   133
     total cpu time spent up to now is        6.1 secs

     Computing kpt #:    90  of   133
     total cpu time spent up to now is        6.1 secs

     Computing kpt #:    91  of   133
     total cpu time spent up to now is        6.2 secs

     Computing kpt #:    92  of   133
     total cpu time spent up to now is        6.2 secs

     Computing kpt #:    93  of   133
     total cpu time spent up to now is        6.3 secs

     Computing kpt #:    94  of   133
     total cpu time spent up to now is        6.3 secs

     Computing kpt #:    95  of   133
     total cpu time spent up to now is        6.4 secs

     Computing kpt #:    96  of   133
     total cpu time spent up to now is        6.4 secs

     Computing kpt #:    97  of   133
     total cpu time spent up to now is        6.5 secs

     Computing kpt #:    98  of   133
     total cpu time spent up to now is        6.5 secs

     Computing kpt #:    99  of   133
     total cpu time spent up to now is        6.6 secs

     Computing kpt #:   100  of   133
     total cpu time spent up to now is        6.6 secs

     Computing kpt #:   101  of   133
     total cpu time spent up to now is        6.7 secs

     Computing kpt #:   102  of   133
     total cpu time spent up to now is        6.7 secs

     Computing kpt #:   103  of   133
     total cpu time spent up to now is        6.7 secs

     Computing kpt #:   104  of   133
     total cpu time spent up to now is        6.8 secs

     Computing kpt #:   105  of   133
     total cpu time spent up to now is        6.8 secs

     Computing kpt #:   106  of   133
     total cpu time spent up to now is        6.9 secs

     Computing kpt #:   107  of   133
     total cpu time spent up to now is        6.9 secs

     Computing kpt #:   108  of   133
     total cpu time spent up to now is        7.0 secs

     Computing kpt #:   109  of   133
     total cpu time spent up to now is        7.0 secs

     Computing kpt #:   110  of   133
     total cpu time spent up to now is        7.0 secs

     Computing kpt #:   111  of   133
     total cpu time spent up to now is        7.1 secs

     Computing kpt #:   112  of   133
     total cpu time spent up to now is        7.1 secs

     Computing kpt #:   113  of   133
     total cpu time spent up to now is        7.2 secs

     Computing kpt #:   114  of   133
     total cpu time spent up to now is        7.2 secs

     Computing kpt #:   115  of   133
     total cpu time spent up to now is        7.3 secs

     Computing kpt #:   116  of   133
     total cpu time spent up to now is        7.3 secs

     Computing kpt #:   117  of   133
     total cpu time spent up to now is        7.3 secs

     Computing kpt #:   118  of   133
     total cpu time spent up to now is        7.4 secs

     Computing kpt #:   119  of   133
     total cpu time spent up to now is        7.4 secs

     Computing kpt #:   120  of   133
     total cpu time spent up to now is        7.5 secs

     Computing kpt #:   121  of   133
     total cpu time spent up to now is        7.5 secs

     Computing kpt #:   122  of   133
     total cpu time spent up to now is        7.5 secs

     Computing kpt #:   123  of   133
     total cpu time spent up to now is        7.6 secs

     Computing kpt #:   124  of   133
     total cpu time spent up to now is        7.6 secs

     Computing kpt #:   125  of   133
     total cpu time spent up to now is        7.7 secs

     Computing kpt #:   126  of   133
     total cpu time spent up to now is        7.7 secs

     Computing kpt #:   127  of   133
     total cpu time spent up to now is        7.8 secs

     Computing kpt #:   128  of   133
     total cpu time spent up to now is        7.8 secs

     Computing kpt #:   129  of   133
     total cpu time spent up to now is        7.9 secs

     Computing kpt #:   130  of   133
     total cpu time spent up to now is        7.9 secs

     Computing kpt #:   131  of   133
     total cpu time spent up to now is        8.0 secs

     Computing kpt #:   132  of   133
     total cpu time spent up to now is        8.0 secs

     Computing kpt #:   133  of   133
     total cpu time spent up to now is        8.1 secs

     ethr =  1.92E-09,  avg # of iterations = 45.5

 %%%%%%%%%%%%%%%%%%%%%%%%%%%%%%%%%%%%%%%%%%%%%%%%%%%%%%%%%%%%%%%%%%%%%%%%%%%%%%
     Error in routine efermig (1):
     internal error, cannot bracket Ef
 %%%%%%%%%%%%%%%%%%%%%%%%%%%%%%%%%%%%%%%%%%%%%%%%%%%%%%%%%%%%%%%%%%%%%%%%%%%%%%

     stopping ...
