
     Program PWSCF v.7.0 starts on 13Jul2022 at 17:13:25 
        Git branch: master
        Last git commit: 28725dfbb9ee577d70cbdc372282dc9039605ca5
        Last git commit date: Tue Dec 21 15:37:27 2021 +0000
        Last git commit subject: Merge branch merge-develop-to-master into mas..

     This program is part of the open-source Quantum ESPRESSO suite
     for quantum simulation of materials; please cite
         "P. Giannozzi et al., J. Phys.:Condens. Matter 21 395502 (2009);
         "P. Giannozzi et al., J. Phys.:Condens. Matter 29 465901 (2017);
         "P. Giannozzi et al., J. Chem. Phys. 152 154105 (2020);
          URL http://www.quantum-espresso.org", 
     in publications or presentations arising from this work. More details at
     http://www.quantum-espresso.org/quote

     Parallel version (MPI), running on    10 processors

     MPI processes distributed on     1 nodes
     R & G space division:  proc/nbgrp/npool/nimage =      10
     748690 MiB available memory on the printing compute node when the environment starts

     Reading input from mos2_scf.in
Warning: card &CELL ignored
Warning: card   CELL_DOFREE= 'IBRAV' ignored
Warning: card / ignored

     Current dimensions of program PWSCF are:
     Max number of different atomic species (ntypx) = 10
     Max number of k-points (npk) =  40000
     Max angular momentum in pseudopotentials (lmaxx) =  4
     file Mo.pbe-spn-kjpaw_psl.1.0.0.UPF: wavefunction(s)  4S 4D renormalized
     file S.pbe-nl-kjpaw_psl.1.0.0.UPF: wavefunction(s)  3S renormalized

     Subspace diagonalization in iterative solution of the eigenvalue problem:
     a serial algorithm will be used


     Parallelization info
     --------------------
     sticks:   dense  smooth     PW     G-vecs:    dense   smooth      PW
     Min           8       8      3                  232      232      55
     Max           9       9      4                  243      243      66
     Sum          85      85     31                 2371     2371     573

     Using Slab Decomposition



     bravais-lattice index     =            4
     lattice parameter (alat)  =       3.1600  a.u.
     unit-cell volume          =     106.3020 (a.u.)^3
     number of atoms/cell      =            6
     number of atomic types    =            2
     number of electrons       =        52.00
     number of Kohn-Sham states=           26
     kinetic-energy cutoff     =      30.0000  Ry
     charge density cutoff     =     120.0000  Ry
     scf convergence threshold =      1.0E-08
     mixing beta               =       0.7000
     number of iterations used =            8  plain     mixing
     Exchange-correlation= SLA  PW   PBX  PBC
                           (   1   4   3   4   0   0   0)

     celldm(1)=   3.160000  celldm(2)=   0.000000  celldm(3)=   3.890000
     celldm(4)=   0.000000  celldm(5)=   0.000000  celldm(6)=   0.000000

     crystal axes: (cart. coord. in units of alat)
               a(1) = (   1.000000   0.000000   0.000000 )  
               a(2) = (  -0.500000   0.866025   0.000000 )  
               a(3) = (   0.000000   0.000000   3.890000 )  

     reciprocal axes: (cart. coord. in units 2 pi/alat)
               b(1) = (  1.000000  0.577350 -0.000000 )  
               b(2) = (  0.000000  1.154701  0.000000 )  
               b(3) = (  0.000000 -0.000000  0.257069 )  


     PseudoPot. # 1 for Mo read from file:
     ./pseudo/Mo.pbe-spn-kjpaw_psl.1.0.0.UPF
     MD5 check sum: 4396e0c640fcce5c25f020efccf1ab12
     Pseudo is Projector augmented-wave + core cor, Zval = 14.0
     Generated using &quot;atomic&quot; code by A. Dal Corso  v.6.3
     Shape of augmentation charge: PSQ
     Using radial grid of 1229 points,  6 beta functions with: 
                l(1) =   0
                l(2) =   0
                l(3) =   1
                l(4) =   1
                l(5) =   2
                l(6) =   2
     Q(r) pseudized with 0 coefficients 


     PseudoPot. # 2 for S  read from file:
     ./pseudo/S.pbe-nl-kjpaw_psl.1.0.0.UPF
     MD5 check sum: a0db168fa6a42edaf368e88c1856b871
     Pseudo is Projector augmented-wave + core cor, Zval =  6.0
     Generated using &quot;atomic&quot; code by A. Dal Corso  v.6.3
     Shape of augmentation charge: PSQ
     Using radial grid of 1151 points,  4 beta functions with: 
                l(1) =   0
                l(2) =   0
                l(3) =   1
                l(4) =   1
     Q(r) pseudized with 0 coefficients 


     atomic species   valence    mass     pseudopotential
        Mo            14.00    95.96000     Mo( 1.00)
        S              6.00    32.06500     S ( 1.00)

     24 Sym. Ops., with inversion, found (12 have fractional translation)


                                    s                        frac. trans.

      isym =  1     identity                                     

 cryst.   s( 1) = (     1          0          0      )
                  (     0          1          0      )
                  (     0          0          1      )

 cart.    s( 1) = (  1.0000000  0.0000000  0.0000000 )
                  (  0.0000000  1.0000000  0.0000000 )
                  (  0.0000000  0.0000000  1.0000000 )


      isym =  2     180 deg rotation - cart. axis [0,0,1]        

 cryst.   s( 2) = (    -1          0          0      )    f =(  0.0000000 )
                  (     0         -1          0      )       (  0.0000000 )
                  (     0          0          1      )       ( -0.5000000 )

 cart.    s( 2) = ( -1.0000000  0.0000000  0.0000000 )    f =(  0.0000000 )
                  (  0.0000000 -1.0000000  0.0000000 )       (  0.0000000 )
                  (  0.0000000  0.0000000  1.0000000 )       ( -1.9450000 )


      isym =  3     180 deg rotation - cart. axis [0,1,0]        

 cryst.   s( 3) = (    -1          0          0      )    f =(  0.0000000 )
                  (     1          1          0      )       (  0.0000000 )
                  (     0          0         -1      )       (  0.5000000 )

 cart.    s( 3) = ( -1.0000000  0.0000000  0.0000000 )    f =(  0.0000000 )
                  (  0.0000000  1.0000000  0.0000000 )       (  0.0000000 )
                  (  0.0000000  0.0000000 -1.0000000 )       (  1.9450000 )


      isym =  4     180 deg rotation - cart. axis [1,0,0]        

 cryst.   s( 4) = (     1          0          0      )
                  (    -1         -1          0      )
                  (     0          0         -1      )

 cart.    s( 4) = (  1.0000000  0.0000000  0.0000000 )
                  (  0.0000000 -1.0000000  0.0000000 )
                  (  0.0000000  0.0000000 -1.0000000 )


      isym =  5      60 deg rotation - cryst. axis [0,0,1]       

 cryst.   s( 5) = (     1          1          0      )    f =(  0.0000000 )
                  (    -1          0          0      )       ( -0.0000000 )
                  (     0          0          1      )       ( -0.5000000 )

 cart.    s( 5) = (  0.5000000 -0.8660254  0.0000000 )    f =(  0.0000000 )
                  (  0.8660254  0.5000000  0.0000000 )       ( -0.0000000 )
                  (  0.0000000  0.0000000  1.0000000 )       ( -1.9450000 )


      isym =  6      60 deg rotation - cryst. axis [0,0,-1]      

 cryst.   s( 6) = (     0         -1          0      )    f =(  0.0000000 )
                  (     1          1          0      )       ( -0.0000000 )
                  (     0          0          1      )       ( -0.5000000 )

 cart.    s( 6) = (  0.5000000  0.8660254  0.0000000 )    f =(  0.0000000 )
                  ( -0.8660254  0.5000000  0.0000000 )       ( -0.0000000 )
                  (  0.0000000  0.0000000  1.0000000 )       ( -1.9450000 )


      isym =  7     120 deg rotation - cryst. axis [0,0,1]       

 cryst.   s( 7) = (     0          1          0      )
                  (    -1         -1          0      )
                  (     0          0          1      )

 cart.    s( 7) = ( -0.5000000 -0.8660254  0.0000000 )
                  (  0.8660254 -0.5000000  0.0000000 )
                  (  0.0000000  0.0000000  1.0000000 )


      isym =  8     120 deg rotation - cryst. axis [0,0,-1]      

 cryst.   s( 8) = (    -1         -1          0      )
                  (     1          0          0      )
                  (     0          0          1      )

 cart.    s( 8) = ( -0.5000000  0.8660254  0.0000000 )
                  ( -0.8660254 -0.5000000  0.0000000 )
                  (  0.0000000  0.0000000  1.0000000 )


      isym =  9     180 deg rotation - cryst. axis [1,-1,0]      

 cryst.   s( 9) = (     0         -1          0      )    f =(  0.0000000 )
                  (    -1          0          0      )       (  0.0000000 )
                  (     0          0         -1      )       (  0.5000000 )

 cart.    s( 9) = (  0.5000000 -0.8660254  0.0000000 )    f =(  0.0000000 )
                  ( -0.8660254 -0.5000000  0.0000000 )       (  0.0000000 )
                  (  0.0000000  0.0000000 -1.0000000 )       (  1.9450000 )


      isym = 10     180 deg rotation - cryst. axis [2,1,0]       

 cryst.   s(10) = (     1          1          0      )    f =(  0.0000000 )
                  (     0         -1          0      )       ( -0.0000000 )
                  (     0          0         -1      )       (  0.5000000 )

 cart.    s(10) = (  0.5000000  0.8660254  0.0000000 )    f =(  0.0000000 )
                  (  0.8660254 -0.5000000  0.0000000 )       ( -0.0000000 )
                  (  0.0000000  0.0000000 -1.0000000 )       (  1.9450000 )


      isym = 11     180 deg rotation - cryst. axis [0,1,0]       

 cryst.   s(11) = (    -1         -1          0      )
                  (     0          1          0      )
                  (     0          0         -1      )

 cart.    s(11) = ( -0.5000000 -0.8660254  0.0000000 )
                  ( -0.8660254  0.5000000  0.0000000 )
                  (  0.0000000  0.0000000 -1.0000000 )


      isym = 12     180 deg rotation - cryst. axis [1,1,0]       

 cryst.   s(12) = (     0          1          0      )
                  (     1          0          0      )
                  (     0          0         -1      )

 cart.    s(12) = ( -0.5000000  0.8660254  0.0000000 )
                  (  0.8660254  0.5000000  0.0000000 )
                  (  0.0000000  0.0000000 -1.0000000 )


      isym = 13     inversion                                    

 cryst.   s(13) = (    -1          0          0      )
                  (     0         -1          0      )
                  (     0          0         -1      )

 cart.    s(13) = ( -1.0000000  0.0000000  0.0000000 )
                  (  0.0000000 -1.0000000  0.0000000 )
                  (  0.0000000  0.0000000 -1.0000000 )


      isym = 14     inv. 180 deg rotation - cart. axis [0,0,1]   

 cryst.   s(14) = (     1          0          0      )    f =(  0.0000000 )
                  (     0          1          0      )       (  0.0000000 )
                  (     0          0         -1      )       (  0.5000000 )

 cart.    s(14) = (  1.0000000  0.0000000  0.0000000 )    f =(  0.0000000 )
                  (  0.0000000  1.0000000  0.0000000 )       (  0.0000000 )
                  (  0.0000000  0.0000000 -1.0000000 )       (  1.9450000 )


      isym = 15     inv. 180 deg rotation - cart. axis [0,1,0]   

 cryst.   s(15) = (     1          0          0      )    f =(  0.0000000 )
                  (    -1         -1          0      )       (  0.0000000 )
                  (     0          0          1      )       ( -0.5000000 )

 cart.    s(15) = (  1.0000000  0.0000000  0.0000000 )    f =(  0.0000000 )
                  (  0.0000000 -1.0000000  0.0000000 )       (  0.0000000 )
                  (  0.0000000  0.0000000  1.0000000 )       ( -1.9450000 )


      isym = 16     inv. 180 deg rotation - cart. axis [1,0,0]   

 cryst.   s(16) = (    -1          0          0      )
                  (     1          1          0      )
                  (     0          0          1      )

 cart.    s(16) = ( -1.0000000  0.0000000  0.0000000 )
                  (  0.0000000  1.0000000  0.0000000 )
                  (  0.0000000  0.0000000  1.0000000 )


      isym = 17     inv.  60 deg rotation - cryst. axis [0,0,1]  

 cryst.   s(17) = (    -1         -1          0      )    f =(  0.0000000 )
                  (     1          0          0      )       (  0.0000000 )
                  (     0          0         -1      )       (  0.5000000 )

 cart.    s(17) = ( -0.5000000  0.8660254  0.0000000 )    f =(  0.0000000 )
                  ( -0.8660254 -0.5000000  0.0000000 )       (  0.0000000 )
                  (  0.0000000  0.0000000 -1.0000000 )       (  1.9450000 )


      isym = 18     inv.  60 deg rotation - cryst. axis [0,0,-1] 

 cryst.   s(18) = (     0          1          0      )    f =(  0.0000000 )
                  (    -1         -1          0      )       ( -0.0000000 )
                  (     0          0         -1      )       (  0.5000000 )

 cart.    s(18) = ( -0.5000000 -0.8660254  0.0000000 )    f =(  0.0000000 )
                  (  0.8660254 -0.5000000  0.0000000 )       ( -0.0000000 )
                  (  0.0000000  0.0000000 -1.0000000 )       (  1.9450000 )


      isym = 19     inv. 120 deg rotation - cryst. axis [0,0,1]  

 cryst.   s(19) = (     0         -1          0      )
                  (     1          1          0      )
                  (     0          0         -1      )

 cart.    s(19) = (  0.5000000  0.8660254  0.0000000 )
                  ( -0.8660254  0.5000000  0.0000000 )
                  (  0.0000000  0.0000000 -1.0000000 )


      isym = 20     inv. 120 deg rotation - cryst. axis [0,0,-1] 

 cryst.   s(20) = (     1          1          0      )
                  (    -1          0          0      )
                  (     0          0         -1      )

 cart.    s(20) = (  0.5000000 -0.8660254  0.0000000 )
                  (  0.8660254  0.5000000  0.0000000 )
                  (  0.0000000  0.0000000 -1.0000000 )


      isym = 21     inv. 180 deg rotation - cryst. axis [1,-1,0] 

 cryst.   s(21) = (     0          1          0      )    f =(  0.0000000 )
                  (     1          0          0      )       ( -0.0000000 )
                  (     0          0          1      )       ( -0.5000000 )

 cart.    s(21) = ( -0.5000000  0.8660254  0.0000000 )    f =(  0.0000000 )
                  (  0.8660254  0.5000000  0.0000000 )       ( -0.0000000 )
                  (  0.0000000  0.0000000  1.0000000 )       ( -1.9450000 )


      isym = 22     inv. 180 deg rotation - cryst. axis [2,1,0]  

 cryst.   s(22) = (    -1         -1          0      )    f =(  0.0000000 )
                  (     0          1          0      )       ( -0.0000000 )
                  (     0          0          1      )       ( -0.5000000 )

 cart.    s(22) = ( -0.5000000 -0.8660254  0.0000000 )    f =(  0.0000000 )
                  ( -0.8660254  0.5000000  0.0000000 )       ( -0.0000000 )
                  (  0.0000000  0.0000000  1.0000000 )       ( -1.9450000 )


      isym = 23     inv. 180 deg rotation - cryst. axis [0,1,0]  

 cryst.   s(23) = (     1          1          0      )
                  (     0         -1          0      )
                  (     0          0          1      )

 cart.    s(23) = (  0.5000000  0.8660254  0.0000000 )
                  (  0.8660254 -0.5000000  0.0000000 )
                  (  0.0000000  0.0000000  1.0000000 )


      isym = 24     inv. 180 deg rotation - cryst. axis [1,1,0]  

 cryst.   s(24) = (     0         -1          0      )
                  (    -1          0          0      )
                  (     0          0          1      )

 cart.    s(24) = (  0.5000000 -0.8660254  0.0000000 )
                  ( -0.8660254 -0.5000000  0.0000000 )
                  (  0.0000000  0.0000000  1.0000000 )


     point group D_6h(6/mmm)
     there are 12 classes
     the character table:

       E     2C6   2C3   C2    3C2'  3C2'' i     2S3   2S6   s_h   3s_d  3s_v 
A_1g   1.00  1.00  1.00  1.00  1.00  1.00  1.00  1.00  1.00  1.00  1.00  1.00
A_2g   1.00  1.00  1.00  1.00 -1.00 -1.00  1.00  1.00  1.00  1.00 -1.00 -1.00
B_1g   1.00 -1.00  1.00 -1.00  1.00 -1.00  1.00 -1.00  1.00 -1.00  1.00 -1.00
B_2g   1.00 -1.00  1.00 -1.00 -1.00  1.00  1.00 -1.00  1.00 -1.00 -1.00  1.00
E_1g   2.00  1.00 -1.00 -2.00  0.00  0.00  2.00  1.00 -1.00 -2.00  0.00  0.00
E_2g   2.00 -1.00 -1.00  2.00  0.00  0.00  2.00 -1.00 -1.00  2.00  0.00  0.00
A_1u   1.00  1.00  1.00  1.00  1.00  1.00 -1.00 -1.00 -1.00 -1.00 -1.00 -1.00
A_2u   1.00  1.00  1.00  1.00 -1.00 -1.00 -1.00 -1.00 -1.00 -1.00  1.00  1.00
B_1u   1.00 -1.00  1.00 -1.00  1.00 -1.00 -1.00  1.00 -1.00  1.00 -1.00  1.00
B_2u   1.00 -1.00  1.00 -1.00 -1.00  1.00 -1.00  1.00 -1.00  1.00  1.00 -1.00
E_1u   2.00  1.00 -1.00 -2.00  0.00  0.00 -2.00 -1.00  1.00  2.00  0.00  0.00
E_2u   2.00 -1.00 -1.00  2.00  0.00  0.00 -2.00  1.00  1.00 -2.00  0.00  0.00

     the symmetry operations in each class and the name of the first element:

     E        1
          identity                                               
     2C6      5    6
           60 deg rotation - cryst. axis [0,0,1]                 
     2C3      7    8
          120 deg rotation - cryst. axis [0,0,1]                 
     C2       2
          180 deg rotation - cart. axis [0,0,1]                  
     3C2'     4   12   11
          180 deg rotation - cart. axis [1,0,0]                  
     3C2''    3    9   10
          180 deg rotation - cart. axis [0,1,0]                  
     i       13
          inversion                                              
     2S3     17   18
          inv.  60 deg rotation - cryst. axis [0,0,1]            
     2S6     19   20
          inv. 120 deg rotation - cryst. axis [0,0,1]            
     s_h     14
          inv. 180 deg rotation - cart. axis [0,0,1]             
     3s_d    16   24   23
          inv. 180 deg rotation - cart. axis [1,0,0]             
     3s_v    15   21   22
          inv. 180 deg rotation - cart. axis [0,1,0]             

   Cartesian axes

     site n.     atom                  positions (alat units)
         1           Mo  tau(   1) = (  -0.0000000   0.5773503   0.9725000  )
         2           Mo  tau(   2) = (   0.5000000   0.2886751   2.9175000  )
         3           S   tau(   3) = (  -0.0000000   0.5773503   3.3266269  )
         4           S   tau(   4) = (   0.5000000   0.2886751   0.5633731  )
         5           S   tau(   5) = (   0.5000000   0.2886751   1.3816269  )
         6           S   tau(   6) = (   0.0000000   0.5773503   2.5083731  )

   Crystallographic axes

     site n.     atom                  positions (cryst. coord.)
         1           Mo  tau(   1) = (  0.3333333  0.6666667  0.2500000  )
         2           Mo  tau(   2) = (  0.6666667  0.3333333  0.7500000  )
         3           S   tau(   3) = (  0.3333333  0.6666667  0.8551740  )
         4           S   tau(   4) = (  0.6666667  0.3333333  0.1448260  )
         5           S   tau(   5) = (  0.6666667  0.3333333  0.3551740  )
         6           S   tau(   6) = (  0.3333333  0.6666667  0.6448260  )

     number of k points=   133
                       cart. coord. in units 2pi/alat
        k(    1) = (   0.0000000   0.0000000   0.0000000), wk =   0.0011574
        k(    2) = (   0.0000000   0.0000000   0.0214225), wk =   0.0023148
        k(    3) = (   0.0000000   0.0000000   0.0428449), wk =   0.0023148
        k(    4) = (   0.0000000   0.0000000   0.0642674), wk =   0.0023148
        k(    5) = (   0.0000000   0.0000000   0.0856898), wk =   0.0023148
        k(    6) = (   0.0000000   0.0000000   0.1071123), wk =   0.0023148
        k(    7) = (   0.0000000   0.0000000  -0.1285347), wk =   0.0011574
        k(    8) = (   0.0000000   0.0962250   0.0000000), wk =   0.0069444
        k(    9) = (   0.0000000   0.0962250   0.0214225), wk =   0.0138889
        k(   10) = (   0.0000000   0.0962250   0.0428449), wk =   0.0138889
        k(   11) = (   0.0000000   0.0962250   0.0642674), wk =   0.0138889
        k(   12) = (   0.0000000   0.0962250   0.0856898), wk =   0.0138889
        k(   13) = (   0.0000000   0.0962250   0.1071123), wk =   0.0138889
        k(   14) = (   0.0000000   0.0962250  -0.1285347), wk =   0.0069444
        k(   15) = (   0.0000000   0.1924501   0.0000000), wk =   0.0069444
        k(   16) = (   0.0000000   0.1924501   0.0214225), wk =   0.0138889
        k(   17) = (   0.0000000   0.1924501   0.0428449), wk =   0.0138889
        k(   18) = (   0.0000000   0.1924501   0.0642674), wk =   0.0138889
        k(   19) = (   0.0000000   0.1924501   0.0856898), wk =   0.0138889
        k(   20) = (   0.0000000   0.1924501   0.1071123), wk =   0.0138889
        k(   21) = (   0.0000000   0.1924501  -0.1285347), wk =   0.0069444
        k(   22) = (   0.0000000   0.2886751   0.0000000), wk =   0.0069444
        k(   23) = (   0.0000000   0.2886751   0.0214225), wk =   0.0138889
        k(   24) = (   0.0000000   0.2886751   0.0428449), wk =   0.0138889
        k(   25) = (   0.0000000   0.2886751   0.0642674), wk =   0.0138889
        k(   26) = (   0.0000000   0.2886751   0.0856898), wk =   0.0138889
        k(   27) = (   0.0000000   0.2886751   0.1071123), wk =   0.0138889
        k(   28) = (   0.0000000   0.2886751  -0.1285347), wk =   0.0069444
        k(   29) = (   0.0000000   0.3849002   0.0000000), wk =   0.0069444
        k(   30) = (   0.0000000   0.3849002   0.0214225), wk =   0.0138889
        k(   31) = (   0.0000000   0.3849002   0.0428449), wk =   0.0138889
        k(   32) = (   0.0000000   0.3849002   0.0642674), wk =   0.0138889
        k(   33) = (   0.0000000   0.3849002   0.0856898), wk =   0.0138889
        k(   34) = (   0.0000000   0.3849002   0.1071123), wk =   0.0138889
        k(   35) = (   0.0000000   0.3849002  -0.1285347), wk =   0.0069444
        k(   36) = (   0.0000000   0.4811252   0.0000000), wk =   0.0069444
        k(   37) = (   0.0000000   0.4811252   0.0214225), wk =   0.0138889
        k(   38) = (   0.0000000   0.4811252   0.0428449), wk =   0.0138889
        k(   39) = (   0.0000000   0.4811252   0.0642674), wk =   0.0138889
        k(   40) = (   0.0000000   0.4811252   0.0856898), wk =   0.0138889
        k(   41) = (   0.0000000   0.4811252   0.1071123), wk =   0.0138889
        k(   42) = (   0.0000000   0.4811252  -0.1285347), wk =   0.0069444
        k(   43) = (   0.0000000  -0.5773503   0.0000000), wk =   0.0034722
        k(   44) = (   0.0000000  -0.5773503   0.0214225), wk =   0.0069444
        k(   45) = (   0.0000000  -0.5773503   0.0428449), wk =   0.0069444
        k(   46) = (   0.0000000  -0.5773503   0.0642674), wk =   0.0069444
        k(   47) = (   0.0000000  -0.5773503   0.0856898), wk =   0.0069444
        k(   48) = (   0.0000000  -0.5773503   0.1071123), wk =   0.0069444
        k(   49) = (   0.0000000  -0.5773503  -0.1285347), wk =   0.0034722
        k(   50) = (   0.0833333   0.1443376   0.0000000), wk =   0.0069444
        k(   51) = (   0.0833333   0.1443376   0.0214225), wk =   0.0138889
        k(   52) = (   0.0833333   0.1443376   0.0428449), wk =   0.0138889
        k(   53) = (   0.0833333   0.1443376   0.0642674), wk =   0.0138889
        k(   54) = (   0.0833333   0.1443376   0.0856898), wk =   0.0138889
        k(   55) = (   0.0833333   0.1443376   0.1071123), wk =   0.0138889
        k(   56) = (   0.0833333   0.1443376  -0.1285347), wk =   0.0069444
        k(   57) = (   0.0833333   0.2405626   0.0000000), wk =   0.0138889
        k(   58) = (   0.0833333   0.2405626   0.0214225), wk =   0.0277778
        k(   59) = (   0.0833333   0.2405626   0.0428449), wk =   0.0277778
        k(   60) = (   0.0833333   0.2405626   0.0642674), wk =   0.0277778
        k(   61) = (   0.0833333   0.2405626   0.0856898), wk =   0.0277778
        k(   62) = (   0.0833333   0.2405626   0.1071123), wk =   0.0277778
        k(   63) = (   0.0833333   0.2405626  -0.1285347), wk =   0.0138889
        k(   64) = (   0.0833333   0.3367877   0.0000000), wk =   0.0138889
        k(   65) = (   0.0833333   0.3367877   0.0214225), wk =   0.0277778
        k(   66) = (   0.0833333   0.3367877   0.0428449), wk =   0.0277778
        k(   67) = (   0.0833333   0.3367877   0.0642674), wk =   0.0277778
        k(   68) = (   0.0833333   0.3367877   0.0856898), wk =   0.0277778
        k(   69) = (   0.0833333   0.3367877   0.1071123), wk =   0.0277778
        k(   70) = (   0.0833333   0.3367877  -0.1285347), wk =   0.0138889
        k(   71) = (   0.0833333   0.4330127   0.0000000), wk =   0.0138889
        k(   72) = (   0.0833333   0.4330127   0.0214225), wk =   0.0277778
        k(   73) = (   0.0833333   0.4330127   0.0428449), wk =   0.0277778
        k(   74) = (   0.0833333   0.4330127   0.0642674), wk =   0.0277778
        k(   75) = (   0.0833333   0.4330127   0.0856898), wk =   0.0277778
        k(   76) = (   0.0833333   0.4330127   0.1071123), wk =   0.0277778
        k(   77) = (   0.0833333   0.4330127  -0.1285347), wk =   0.0138889
        k(   78) = (   0.0833333   0.5292377   0.0000000), wk =   0.0138889
        k(   79) = (   0.0833333   0.5292377   0.0214225), wk =   0.0277778
        k(   80) = (   0.0833333   0.5292377   0.0428449), wk =   0.0277778
        k(   81) = (   0.0833333   0.5292377   0.0642674), wk =   0.0277778
        k(   82) = (   0.0833333   0.5292377   0.0856898), wk =   0.0277778
        k(   83) = (   0.0833333   0.5292377   0.1071123), wk =   0.0277778
        k(   84) = (   0.0833333   0.5292377  -0.1285347), wk =   0.0138889
        k(   85) = (   0.1666667   0.2886751   0.0000000), wk =   0.0069444
        k(   86) = (   0.1666667   0.2886751   0.0214225), wk =   0.0138889
        k(   87) = (   0.1666667   0.2886751   0.0428449), wk =   0.0138889
        k(   88) = (   0.1666667   0.2886751   0.0642674), wk =   0.0138889
        k(   89) = (   0.1666667   0.2886751   0.0856898), wk =   0.0138889
        k(   90) = (   0.1666667   0.2886751   0.1071123), wk =   0.0138889
        k(   91) = (   0.1666667   0.2886751  -0.1285347), wk =   0.0069444
        k(   92) = (   0.1666667   0.3849002   0.0000000), wk =   0.0138889
        k(   93) = (   0.1666667   0.3849002   0.0214225), wk =   0.0277778
        k(   94) = (   0.1666667   0.3849002   0.0428449), wk =   0.0277778
        k(   95) = (   0.1666667   0.3849002   0.0642674), wk =   0.0277778
        k(   96) = (   0.1666667   0.3849002   0.0856898), wk =   0.0277778
        k(   97) = (   0.1666667   0.3849002   0.1071123), wk =   0.0277778
        k(   98) = (   0.1666667   0.3849002  -0.1285347), wk =   0.0138889
        k(   99) = (   0.1666667   0.4811252   0.0000000), wk =   0.0138889
        k(  100) = (   0.1666667   0.4811252   0.0214225), wk =   0.0277778
        k(  101) = (   0.1666667   0.4811252   0.0428449), wk =   0.0277778
        k(  102) = (   0.1666667   0.4811252   0.0642674), wk =   0.0277778
        k(  103) = (   0.1666667   0.4811252   0.0856898), wk =   0.0277778
        k(  104) = (   0.1666667   0.4811252   0.1071123), wk =   0.0277778
        k(  105) = (   0.1666667   0.4811252  -0.1285347), wk =   0.0138889
        k(  106) = (   0.1666667   0.5773503   0.0000000), wk =   0.0069444
        k(  107) = (   0.1666667   0.5773503   0.0214225), wk =   0.0138889
        k(  108) = (   0.1666667   0.5773503   0.0428449), wk =   0.0138889
        k(  109) = (   0.1666667   0.5773503   0.0642674), wk =   0.0138889
        k(  110) = (   0.1666667   0.5773503   0.0856898), wk =   0.0138889
        k(  111) = (   0.1666667   0.5773503   0.1071123), wk =   0.0138889
        k(  112) = (   0.1666667   0.5773503  -0.1285347), wk =   0.0069444
        k(  113) = (   0.2500000   0.4330127   0.0000000), wk =   0.0069444
        k(  114) = (   0.2500000   0.4330127   0.0214225), wk =   0.0138889
        k(  115) = (   0.2500000   0.4330127   0.0428449), wk =   0.0138889
        k(  116) = (   0.2500000   0.4330127   0.0642674), wk =   0.0138889
        k(  117) = (   0.2500000   0.4330127   0.0856898), wk =   0.0138889
        k(  118) = (   0.2500000   0.4330127   0.1071123), wk =   0.0138889
        k(  119) = (   0.2500000   0.4330127  -0.1285347), wk =   0.0069444
        k(  120) = (   0.2500000   0.5292377   0.0000000), wk =   0.0138889
        k(  121) = (   0.2500000   0.5292377   0.0214225), wk =   0.0277778
        k(  122) = (   0.2500000   0.5292377   0.0428449), wk =   0.0277778
        k(  123) = (   0.2500000   0.5292377   0.0642674), wk =   0.0277778
        k(  124) = (   0.2500000   0.5292377   0.0856898), wk =   0.0277778
        k(  125) = (   0.2500000   0.5292377   0.1071123), wk =   0.0277778
        k(  126) = (   0.2500000   0.5292377  -0.1285347), wk =   0.0138889
        k(  127) = (   0.3333333   0.5773503   0.0000000), wk =   0.0023148
        k(  128) = (   0.3333333   0.5773503   0.0214225), wk =   0.0046296
        k(  129) = (   0.3333333   0.5773503   0.0428449), wk =   0.0046296
        k(  130) = (   0.3333333   0.5773503   0.0642674), wk =   0.0046296
        k(  131) = (   0.3333333   0.5773503   0.0856898), wk =   0.0046296
        k(  132) = (   0.3333333   0.5773503   0.1071123), wk =   0.0046296
        k(  133) = (   0.3333333   0.5773503  -0.1285347), wk =   0.0023148

                       cryst. coord.
        k(    1) = (   0.0000000   0.0000000   0.0000000), wk =   0.0011574
        k(    2) = (   0.0000000   0.0000000   0.0833333), wk =   0.0023148
        k(    3) = (   0.0000000   0.0000000   0.1666667), wk =   0.0023148
        k(    4) = (   0.0000000   0.0000000   0.2500000), wk =   0.0023148
        k(    5) = (   0.0000000   0.0000000   0.3333333), wk =   0.0023148
        k(    6) = (   0.0000000   0.0000000   0.4166667), wk =   0.0023148
        k(    7) = (   0.0000000   0.0000000  -0.5000000), wk =   0.0011574
        k(    8) = (   0.0000000   0.0833333   0.0000000), wk =   0.0069444
        k(    9) = (   0.0000000   0.0833333   0.0833333), wk =   0.0138889
        k(   10) = (   0.0000000   0.0833333   0.1666667), wk =   0.0138889
        k(   11) = (   0.0000000   0.0833333   0.2500000), wk =   0.0138889
        k(   12) = (   0.0000000   0.0833333   0.3333333), wk =   0.0138889
        k(   13) = (   0.0000000   0.0833333   0.4166667), wk =   0.0138889
        k(   14) = (   0.0000000   0.0833333  -0.5000000), wk =   0.0069444
        k(   15) = (   0.0000000   0.1666667   0.0000000), wk =   0.0069444
        k(   16) = (   0.0000000   0.1666667   0.0833333), wk =   0.0138889
        k(   17) = (   0.0000000   0.1666667   0.1666667), wk =   0.0138889
        k(   18) = (   0.0000000   0.1666667   0.2500000), wk =   0.0138889
        k(   19) = (   0.0000000   0.1666667   0.3333333), wk =   0.0138889
        k(   20) = (   0.0000000   0.1666667   0.4166667), wk =   0.0138889
        k(   21) = (   0.0000000   0.1666667  -0.5000000), wk =   0.0069444
        k(   22) = (   0.0000000   0.2500000   0.0000000), wk =   0.0069444
        k(   23) = (   0.0000000   0.2500000   0.0833333), wk =   0.0138889
        k(   24) = (   0.0000000   0.2500000   0.1666667), wk =   0.0138889
        k(   25) = (   0.0000000   0.2500000   0.2500000), wk =   0.0138889
        k(   26) = (   0.0000000   0.2500000   0.3333333), wk =   0.0138889
        k(   27) = (   0.0000000   0.2500000   0.4166667), wk =   0.0138889
        k(   28) = (   0.0000000   0.2500000  -0.5000000), wk =   0.0069444
        k(   29) = (   0.0000000   0.3333333   0.0000000), wk =   0.0069444
        k(   30) = (   0.0000000   0.3333333   0.0833333), wk =   0.0138889
        k(   31) = (   0.0000000   0.3333333   0.1666667), wk =   0.0138889
        k(   32) = (   0.0000000   0.3333333   0.2500000), wk =   0.0138889
        k(   33) = (   0.0000000   0.3333333   0.3333333), wk =   0.0138889
        k(   34) = (   0.0000000   0.3333333   0.4166667), wk =   0.0138889
        k(   35) = (   0.0000000   0.3333333  -0.5000000), wk =   0.0069444
        k(   36) = (   0.0000000   0.4166667   0.0000000), wk =   0.0069444
        k(   37) = (   0.0000000   0.4166667   0.0833333), wk =   0.0138889
        k(   38) = (   0.0000000   0.4166667   0.1666667), wk =   0.0138889
        k(   39) = (   0.0000000   0.4166667   0.2500000), wk =   0.0138889
        k(   40) = (   0.0000000   0.4166667   0.3333333), wk =   0.0138889
        k(   41) = (   0.0000000   0.4166667   0.4166667), wk =   0.0138889
        k(   42) = (   0.0000000   0.4166667  -0.5000000), wk =   0.0069444
        k(   43) = (   0.0000000  -0.5000000   0.0000000), wk =   0.0034722
        k(   44) = (   0.0000000  -0.5000000   0.0833333), wk =   0.0069444
        k(   45) = (   0.0000000  -0.5000000   0.1666667), wk =   0.0069444
        k(   46) = (   0.0000000  -0.5000000   0.2500000), wk =   0.0069444
        k(   47) = (   0.0000000  -0.5000000   0.3333333), wk =   0.0069444
        k(   48) = (   0.0000000  -0.5000000   0.4166667), wk =   0.0069444
        k(   49) = (   0.0000000  -0.5000000  -0.5000000), wk =   0.0034722
        k(   50) = (   0.0833333   0.0833333   0.0000000), wk =   0.0069444
        k(   51) = (   0.0833333   0.0833333   0.0833333), wk =   0.0138889
        k(   52) = (   0.0833333   0.0833333   0.1666667), wk =   0.0138889
        k(   53) = (   0.0833333   0.0833333   0.2500000), wk =   0.0138889
        k(   54) = (   0.0833333   0.0833333   0.3333333), wk =   0.0138889
        k(   55) = (   0.0833333   0.0833333   0.4166667), wk =   0.0138889
        k(   56) = (   0.0833333   0.0833333  -0.5000000), wk =   0.0069444
        k(   57) = (   0.0833333   0.1666667   0.0000000), wk =   0.0138889
        k(   58) = (   0.0833333   0.1666667   0.0833333), wk =   0.0277778
        k(   59) = (   0.0833333   0.1666667   0.1666667), wk =   0.0277778
        k(   60) = (   0.0833333   0.1666667   0.2500000), wk =   0.0277778
        k(   61) = (   0.0833333   0.1666667   0.3333333), wk =   0.0277778
        k(   62) = (   0.0833333   0.1666667   0.4166667), wk =   0.0277778
        k(   63) = (   0.0833333   0.1666667  -0.5000000), wk =   0.0138889
        k(   64) = (   0.0833333   0.2500000   0.0000000), wk =   0.0138889
        k(   65) = (   0.0833333   0.2500000   0.0833333), wk =   0.0277778
        k(   66) = (   0.0833333   0.2500000   0.1666667), wk =   0.0277778
        k(   67) = (   0.0833333   0.2500000   0.2500000), wk =   0.0277778
        k(   68) = (   0.0833333   0.2500000   0.3333333), wk =   0.0277778
        k(   69) = (   0.0833333   0.2500000   0.4166667), wk =   0.0277778
        k(   70) = (   0.0833333   0.2500000  -0.5000000), wk =   0.0138889
        k(   71) = (   0.0833333   0.3333333   0.0000000), wk =   0.0138889
        k(   72) = (   0.0833333   0.3333333   0.0833333), wk =   0.0277778
        k(   73) = (   0.0833333   0.3333333   0.1666667), wk =   0.0277778
        k(   74) = (   0.0833333   0.3333333   0.2500000), wk =   0.0277778
        k(   75) = (   0.0833333   0.3333333   0.3333333), wk =   0.0277778
        k(   76) = (   0.0833333   0.3333333   0.4166667), wk =   0.0277778
        k(   77) = (   0.0833333   0.3333333  -0.5000000), wk =   0.0138889
        k(   78) = (   0.0833333   0.4166667   0.0000000), wk =   0.0138889
        k(   79) = (   0.0833333   0.4166667   0.0833333), wk =   0.0277778
        k(   80) = (   0.0833333   0.4166667   0.1666667), wk =   0.0277778
        k(   81) = (   0.0833333   0.4166667   0.2500000), wk =   0.0277778
        k(   82) = (   0.0833333   0.4166667   0.3333333), wk =   0.0277778
        k(   83) = (   0.0833333   0.4166667   0.4166667), wk =   0.0277778
        k(   84) = (   0.0833333   0.4166667  -0.5000000), wk =   0.0138889
        k(   85) = (   0.1666667   0.1666667   0.0000000), wk =   0.0069444
        k(   86) = (   0.1666667   0.1666667   0.0833333), wk =   0.0138889
        k(   87) = (   0.1666667   0.1666667   0.1666667), wk =   0.0138889
        k(   88) = (   0.1666667   0.1666667   0.2500000), wk =   0.0138889
        k(   89) = (   0.1666667   0.1666667   0.3333333), wk =   0.0138889
        k(   90) = (   0.1666667   0.1666667   0.4166667), wk =   0.0138889
        k(   91) = (   0.1666667   0.1666667  -0.5000000), wk =   0.0069444
        k(   92) = (   0.1666667   0.2500000   0.0000000), wk =   0.0138889
        k(   93) = (   0.1666667   0.2500000   0.0833333), wk =   0.0277778
        k(   94) = (   0.1666667   0.2500000   0.1666667), wk =   0.0277778
        k(   95) = (   0.1666667   0.2500000   0.2500000), wk =   0.0277778
        k(   96) = (   0.1666667   0.2500000   0.3333333), wk =   0.0277778
        k(   97) = (   0.1666667   0.2500000   0.4166667), wk =   0.0277778
        k(   98) = (   0.1666667   0.2500000  -0.5000000), wk =   0.0138889
        k(   99) = (   0.1666667   0.3333333   0.0000000), wk =   0.0138889
        k(  100) = (   0.1666667   0.3333333   0.0833333), wk =   0.0277778
        k(  101) = (   0.1666667   0.3333333   0.1666667), wk =   0.0277778
        k(  102) = (   0.1666667   0.3333333   0.2500000), wk =   0.0277778
        k(  103) = (   0.1666667   0.3333333   0.3333333), wk =   0.0277778
        k(  104) = (   0.1666667   0.3333333   0.4166667), wk =   0.0277778
        k(  105) = (   0.1666667   0.3333333  -0.5000000), wk =   0.0138889
        k(  106) = (   0.1666667   0.4166667   0.0000000), wk =   0.0069444
        k(  107) = (   0.1666667   0.4166667   0.0833333), wk =   0.0138889
        k(  108) = (   0.1666667   0.4166667   0.1666667), wk =   0.0138889
        k(  109) = (   0.1666667   0.4166667   0.2500000), wk =   0.0138889
        k(  110) = (   0.1666667   0.4166667   0.3333333), wk =   0.0138889
        k(  111) = (   0.1666667   0.4166667   0.4166667), wk =   0.0138889
        k(  112) = (   0.1666667   0.4166667  -0.5000000), wk =   0.0069444
        k(  113) = (   0.2500000   0.2500000   0.0000000), wk =   0.0069444
        k(  114) = (   0.2500000   0.2500000   0.0833333), wk =   0.0138889
        k(  115) = (   0.2500000   0.2500000   0.1666667), wk =   0.0138889
        k(  116) = (   0.2500000   0.2500000   0.2500000), wk =   0.0138889
        k(  117) = (   0.2500000   0.2500000   0.3333333), wk =   0.0138889
        k(  118) = (   0.2500000   0.2500000   0.4166667), wk =   0.0138889
        k(  119) = (   0.2500000   0.2500000  -0.5000000), wk =   0.0069444
        k(  120) = (   0.2500000   0.3333333   0.0000000), wk =   0.0138889
        k(  121) = (   0.2500000   0.3333333   0.0833333), wk =   0.0277778
        k(  122) = (   0.2500000   0.3333333   0.1666667), wk =   0.0277778
        k(  123) = (   0.2500000   0.3333333   0.2500000), wk =   0.0277778
        k(  124) = (   0.2500000   0.3333333   0.3333333), wk =   0.0277778
        k(  125) = (   0.2500000   0.3333333   0.4166667), wk =   0.0277778
        k(  126) = (   0.2500000   0.3333333  -0.5000000), wk =   0.0138889
        k(  127) = (   0.3333333   0.3333333   0.0000000), wk =   0.0023148
        k(  128) = (   0.3333333   0.3333333   0.0833333), wk =   0.0046296
        k(  129) = (   0.3333333   0.3333333   0.1666667), wk =   0.0046296
        k(  130) = (   0.3333333   0.3333333   0.2500000), wk =   0.0046296
        k(  131) = (   0.3333333   0.3333333   0.3333333), wk =   0.0046296
        k(  132) = (   0.3333333   0.3333333   0.4166667), wk =   0.0046296
        k(  133) = (   0.3333333   0.3333333  -0.5000000), wk =   0.0023148

     Dense  grid:     2371 G-vectors     FFT dimensions: (  12,  12,  48)

     Dynamical RAM for                 wfc:       0.01 MB

     Dynamical RAM for     wfc (w. buffer):       1.54 MB

     Dynamical RAM for           str. fact:       0.01 MB

     Dynamical RAM for           local pot:       0.00 MB

     Dynamical RAM for          nlocal pot:       0.03 MB

     Dynamical RAM for                qrad:       1.76 MB

     Dynamical RAM for          rho,v,vnew:       0.03 MB

     Dynamical RAM for               rhoin:       0.01 MB

     Dynamical RAM for            rho*nmix:       0.06 MB

     Dynamical RAM for           G-vectors:       0.02 MB

     Dynamical RAM for          h,s,v(r/c):       0.12 MB

     Dynamical RAM for          <psi|beta>:       0.03 MB

     Dynamical RAM for                 psi:       0.02 MB

     Dynamical RAM for                hpsi:       0.02 MB

     Dynamical RAM for                spsi:       0.02 MB

     Dynamical RAM for      wfcinit/wfcrot:       0.06 MB

     Dynamical RAM for           addusdens:       0.68 MB

     Estimated static dynamical RAM per process >       3.43 MB

     Estimated max dynamical RAM per process >       4.16 MB

     Estimated total dynamical RAM >      41.65 MB

     Check: negative core charge=   -0.000002

     Initial potential from superposition of free atoms

     starting charge      51.9981, renormalised to      52.0000
     Starting wfcs are   36 randomized atomic wfcs
     Checking if some PAW data can be deallocated... 
       PAW data deallocated on    6 nodes for type:  1
       PAW data deallocated on    4 nodes for type:  2

     total cpu time spent up to now is        0.8 secs

     per-process dynamical memory:    31.2 Mb

     Self-consistent Calculation

     iteration #  1     ecut=    30.00 Ry     beta= 0.70
     Davidson diagonalization with overlap

---- Real-time Memory Report at c_bands before calling an iterative solver
            64 MiB given to the printing process from OS
            30 MiB allocation reported by mallinfo(arena+hblkhd)
        748514 MiB available memory on the node where the printing process lives
------------------
     ethr =  1.00E-02,  avg # of iterations =  7.9

     total cpu time spent up to now is        3.1 secs

     total energy              =    -918.07505681 Ry
     estimated scf accuracy    <      23.23131945 Ry

     iteration #  2     ecut=    30.00 Ry     beta= 0.70
     Davidson diagonalization with overlap

---- Real-time Memory Report at c_bands before calling an iterative solver
            76 MiB given to the printing process from OS
            35 MiB allocation reported by mallinfo(arena+hblkhd)
        748496 MiB available memory on the node where the printing process lives
------------------
     ethr =  1.00E-02,  avg # of iterations =  6.5

     total cpu time spent up to now is        5.1 secs

     total energy              =    -920.50163982 Ry
     estimated scf accuracy    <      55.86357847 Ry

     iteration #  3     ecut=    30.00 Ry     beta= 0.70
     Davidson diagonalization with overlap

---- Real-time Memory Report at c_bands before calling an iterative solver
            77 MiB given to the printing process from OS
            35 MiB allocation reported by mallinfo(arena+hblkhd)
        748494 MiB available memory on the node where the printing process lives
------------------
     ethr =  1.00E-02,  avg # of iterations =  7.2

     total cpu time spent up to now is        7.2 secs

     total energy              =    -931.17961259 Ry
     estimated scf accuracy    <       0.06140790 Ry

     iteration #  4     ecut=    30.00 Ry     beta= 0.70
     Davidson diagonalization with overlap

---- Real-time Memory Report at c_bands before calling an iterative solver
            77 MiB given to the printing process from OS
            35 MiB allocation reported by mallinfo(arena+hblkhd)
        748495 MiB available memory on the node where the printing process lives
------------------
     ethr =  1.18E-04,  avg # of iterations =  7.1

     total cpu time spent up to now is        9.0 secs

     total energy              =    -931.23062802 Ry
     estimated scf accuracy    <       0.02699064 Ry

     iteration #  5     ecut=    30.00 Ry     beta= 0.70
     Davidson diagonalization with overlap

---- Real-time Memory Report at c_bands before calling an iterative solver
            77 MiB given to the printing process from OS
            35 MiB allocation reported by mallinfo(arena+hblkhd)
        748495 MiB available memory on the node where the printing process lives
------------------
     ethr =  5.19E-05,  avg # of iterations =  3.7

     total cpu time spent up to now is       10.3 secs

     total energy              =    -931.23652408 Ry
     estimated scf accuracy    <       0.00008463 Ry

     iteration #  6     ecut=    30.00 Ry     beta= 0.70
     Davidson diagonalization with overlap

---- Real-time Memory Report at c_bands before calling an iterative solver
            77 MiB given to the printing process from OS
            35 MiB allocation reported by mallinfo(arena+hblkhd)
        748495 MiB available memory on the node where the printing process lives
------------------
     c_bands:  1 eigenvalues not converged
     c_bands:  1 eigenvalues not converged
     c_bands:  1 eigenvalues not converged
     c_bands:  1 eigenvalues not converged
     ethr =  1.63E-07,  avg # of iterations =  8.5

     total cpu time spent up to now is       12.6 secs

     total energy              =    -931.23739271 Ry
     estimated scf accuracy    <       0.00022295 Ry

     iteration #  7     ecut=    30.00 Ry     beta= 0.70
     Davidson diagonalization with overlap

---- Real-time Memory Report at c_bands before calling an iterative solver
            77 MiB given to the printing process from OS
            35 MiB allocation reported by mallinfo(arena+hblkhd)
        748495 MiB available memory on the node where the printing process lives
------------------
     ethr =  1.63E-07,  avg # of iterations =  4.7

     total cpu time spent up to now is       14.1 secs

     total energy              =    -931.23743287 Ry
     estimated scf accuracy    <       0.00000096 Ry

     iteration #  8     ecut=    30.00 Ry     beta= 0.70
     Davidson diagonalization with overlap

---- Real-time Memory Report at c_bands before calling an iterative solver
            77 MiB given to the printing process from OS
            35 MiB allocation reported by mallinfo(arena+hblkhd)
        748495 MiB available memory on the node where the printing process lives
------------------
     c_bands:  1 eigenvalues not converged
     c_bands:  1 eigenvalues not converged
     c_bands:  1 eigenvalues not converged
     c_bands:  1 eigenvalues not converged
     c_bands:  1 eigenvalues not converged
     ethr =  1.85E-09,  avg # of iterations =  7.5

     total cpu time spent up to now is       16.1 secs

     total energy              =    -931.23743560 Ry
     estimated scf accuracy    <       0.00000098 Ry

     iteration #  9     ecut=    30.00 Ry     beta= 0.70
     Davidson diagonalization with overlap

---- Real-time Memory Report at c_bands before calling an iterative solver
            77 MiB given to the printing process from OS
            36 MiB allocation reported by mallinfo(arena+hblkhd)
        748495 MiB available memory on the node where the printing process lives
------------------
     c_bands:  1 eigenvalues not converged
     c_bands:  1 eigenvalues not converged
     ethr =  1.85E-09,  avg # of iterations =  3.5

     total cpu time spent up to now is       17.4 secs

     total energy              =    -931.23743583 Ry
     estimated scf accuracy    <       0.00000002 Ry

     iteration # 10     ecut=    30.00 Ry     beta= 0.70
     Davidson diagonalization with overlap

---- Real-time Memory Report at c_bands before calling an iterative solver
            77 MiB given to the printing process from OS
            36 MiB allocation reported by mallinfo(arena+hblkhd)
        748495 MiB available memory on the node where the printing process lives
------------------
     c_bands:  1 eigenvalues not converged
     c_bands:  1 eigenvalues not converged
     c_bands:  1 eigenvalues not converged
     ethr =  3.76E-11,  avg # of iterations =  7.0

     total cpu time spent up to now is       19.2 secs

     total energy              =    -931.23744326 Ry
     estimated scf accuracy    <       0.00000152 Ry

     iteration # 11     ecut=    30.00 Ry     beta= 0.70
     Davidson diagonalization with overlap

---- Real-time Memory Report at c_bands before calling an iterative solver
            77 MiB given to the printing process from OS
            36 MiB allocation reported by mallinfo(arena+hblkhd)
        748495 MiB available memory on the node where the printing process lives
------------------
     c_bands:  1 eigenvalues not converged
     c_bands:  1 eigenvalues not converged
     ethr =  3.76E-11,  avg # of iterations =  1.4

     total cpu time spent up to now is       20.1 secs

     total energy              =    -931.23744327 Ry
     estimated scf accuracy    <       0.00000153 Ry

     iteration # 12     ecut=    30.00 Ry     beta= 0.70
     Davidson diagonalization with overlap

---- Real-time Memory Report at c_bands before calling an iterative solver
            77 MiB given to the printing process from OS
            36 MiB allocation reported by mallinfo(arena+hblkhd)
        748495 MiB available memory on the node where the printing process lives
------------------
     ethr =  3.76E-11,  avg # of iterations =  1.0

     total cpu time spent up to now is       20.8 secs

     total energy              =    -931.23744336 Ry
     estimated scf accuracy    <       0.00000153 Ry

     iteration # 13     ecut=    30.00 Ry     beta= 0.70
     Davidson diagonalization with overlap

---- Real-time Memory Report at c_bands before calling an iterative solver
            77 MiB given to the printing process from OS
            36 MiB allocation reported by mallinfo(arena+hblkhd)
        748495 MiB available memory on the node where the printing process lives
------------------
     ethr =  3.76E-11,  avg # of iterations =  2.5

     total cpu time spent up to now is       21.9 secs

     total energy              =    -931.23744312 Ry
     estimated scf accuracy    <       0.00000182 Ry

     iteration # 14     ecut=    30.00 Ry     beta= 0.70
     Davidson diagonalization with overlap

---- Real-time Memory Report at c_bands before calling an iterative solver
            77 MiB given to the printing process from OS
            36 MiB allocation reported by mallinfo(arena+hblkhd)
        748493 MiB available memory on the node where the printing process lives
------------------
     ethr =  3.76E-11,  avg # of iterations =  4.9

     total cpu time spent up to now is       23.5 secs

     total energy              =    -931.23744279 Ry
     estimated scf accuracy    <       0.00000110 Ry

     iteration # 15     ecut=    30.00 Ry     beta= 0.70
     Davidson diagonalization with overlap

---- Real-time Memory Report at c_bands before calling an iterative solver
            77 MiB given to the printing process from OS
            36 MiB allocation reported by mallinfo(arena+hblkhd)
        748492 MiB available memory on the node where the printing process lives
------------------
     ethr =  3.76E-11,  avg # of iterations =  6.7

     total cpu time spent up to now is       25.5 secs

     total energy              =    -931.23744291 Ry
     estimated scf accuracy    <       0.00000016 Ry

     iteration # 16     ecut=    30.00 Ry     beta= 0.70
     Davidson diagonalization with overlap

---- Real-time Memory Report at c_bands before calling an iterative solver
            77 MiB given to the printing process from OS
            36 MiB allocation reported by mallinfo(arena+hblkhd)
        748492 MiB available memory on the node where the printing process lives
------------------
     ethr =  3.76E-11,  avg # of iterations =  3.1

     total cpu time spent up to now is       26.6 secs

     total energy              =    -931.23744284 Ry
     estimated scf accuracy    <       0.00000028 Ry

     iteration # 17     ecut=    30.00 Ry     beta= 0.70
     Davidson diagonalization with overlap

---- Real-time Memory Report at c_bands before calling an iterative solver
            77 MiB given to the printing process from OS
            36 MiB allocation reported by mallinfo(arena+hblkhd)
        748492 MiB available memory on the node where the printing process lives
------------------
     ethr =  3.76E-11,  avg # of iterations =  3.6

     total cpu time spent up to now is       28.0 secs

     total energy              =    -931.23744282 Ry
     estimated scf accuracy    <       0.00000011 Ry

     iteration # 18     ecut=    30.00 Ry     beta= 0.70
     Davidson diagonalization with overlap

---- Real-time Memory Report at c_bands before calling an iterative solver
            77 MiB given to the printing process from OS
            36 MiB allocation reported by mallinfo(arena+hblkhd)
        748492 MiB available memory on the node where the printing process lives
------------------
     ethr =  3.76E-11,  avg # of iterations =  4.1

     total cpu time spent up to now is       29.4 secs

     total energy              =    -931.23744281 Ry
     estimated scf accuracy    <       0.00000003 Ry

     iteration # 19     ecut=    30.00 Ry     beta= 0.70
     Davidson diagonalization with overlap

---- Real-time Memory Report at c_bands before calling an iterative solver
            77 MiB given to the printing process from OS
            36 MiB allocation reported by mallinfo(arena+hblkhd)
        748492 MiB available memory on the node where the printing process lives
------------------
     ethr =  3.76E-11,  avg # of iterations =  4.7

     total cpu time spent up to now is       30.9 secs

     End of self-consistent calculation

          k = 0.0000 0.0000 0.0000 (   291 PWs)   bands (ev):

   -12.0754 -12.0619  18.2220  18.4612  35.4575  35.4575  35.5793  35.5793
    40.2297  42.5836  50.8063  50.8063  50.8192  50.8192  54.5063  59.4464
    66.2511  66.2511  66.3268  66.3268  69.9871  70.8154  70.9502  74.3052
    87.7590  88.4663

     occupation numbers 
     1.0000   1.0000   1.0000   1.0000   1.0000   1.0000   1.0000   1.0000
     1.0000   1.0000   1.0000   1.0000   1.0000   1.0000   1.0000   1.0000
     1.0000   1.0000   1.0000   1.0000   1.0000   1.0000   1.0000   1.0000
     1.0000   1.0000

          k = 0.0000 0.0000 0.0214 (   291 PWs)   bands (ev):

   -12.0752 -12.0621  18.2265  18.4568  35.4580  35.4580  35.5795  35.5795
    40.2596  42.5398  50.8063  50.8063  50.8195  50.8195  54.5872  59.3464
    66.2509  66.2509  66.3269  66.3269  70.0607  70.8150  70.9646  74.2540
    87.7726  88.4690

     occupation numbers 
     1.0000   1.0000   1.0000   1.0000   1.0000   1.0000   1.0000   1.0000
     1.0000   1.0000   1.0000   1.0000   1.0000   1.0000   1.0000   1.0000
     1.0000   1.0000   1.0000   1.0000   1.0000   1.0000   1.0000   1.0000
     1.0000   1.0000

          k = 0.0000 0.0000 0.0428 (   297 PWs)   bands (ev):

   -12.0746 -12.0630  18.2353  18.4437  35.4584  35.4584  35.5115  35.5115
    40.3348  42.4128  50.7330  50.7330  50.7921  50.7921  54.8238  59.0410
    66.1854  66.1854  66.2191  66.2191  70.2550  70.8044  71.0155  74.0736
    87.7545  88.4631

     occupation numbers 
     1.0000   1.0000   1.0000   1.0000   1.0000   1.0000   1.0000   1.0000
     1.0000   1.0000   1.0000   1.0000   1.0000   1.0000   1.0000   1.0000
     1.0000   1.0000   1.0000   1.0000   1.0000   1.0000   1.0000   1.0000
     1.0000   1.0000

          k = 0.0000 0.0000 0.0643 (   297 PWs)   bands (ev):

   -12.0736 -12.0640  18.2563  18.4233  35.4599  35.4599  35.5106  35.5106
    40.4767  42.2197  50.7353  50.7353  50.7926  50.7926  55.1989  58.6036
    66.1841  66.1841  66.2223  66.2223  70.4864  70.8014  71.1614  73.8236
    87.8221  88.4525

     occupation numbers 
     1.0000   1.0000   1.0000   1.0000   1.0000   1.0000   1.0000   1.0000
     1.0000   1.0000   1.0000   1.0000   1.0000   1.0000   1.0000   1.0000
     1.0000   1.0000   1.0000   1.0000   1.0000   1.0000   1.0000   1.0000
     1.0000   1.0000

          k = 0.0000 0.0000 0.0857 (   304 PWs)   bands (ev):

   -12.0725 -12.0667  18.2713  18.3965  35.4599  35.4599  35.5091  35.5091
    40.6633  41.6962  50.7358  50.7358  50.7930  50.7930  55.6697  58.0571
    66.1829  66.1829  66.2133  66.2133  70.6287  70.7485  71.4409  73.2003
    87.8889  88.3562

     occupation numbers 
     1.0000   1.0000   1.0000   1.0000   1.0000   1.0000   1.0000   1.0000
     1.0000   1.0000   1.0000   1.0000   1.0000   1.0000   1.0000   1.0000
     1.0000   1.0000   1.0000   1.0000   1.0000   1.0000   1.0000   1.0000
     1.0000   1.0000

          k = 0.0000 0.0000 0.1071 (   298 PWs)   bands (ev):

   -12.0711 -12.0680  18.3011  18.3659  35.5132  35.5132  35.5138  35.5138
    40.8938  41.4263  50.8118  50.8118  50.8161  50.8161  56.2272  57.4552
    66.2580  66.2580  66.2614  66.2614  70.6967  70.7521  71.8701  72.7905
    88.0224  88.2453

     occupation numbers 
     1.0000   1.0000   1.0000   1.0000   1.0000   1.0000   1.0000   1.0000
     1.0000   1.0000   1.0000   1.0000   1.0000   1.0000   1.0000   1.0000
     1.0000   1.0000   1.0000   1.0000   1.0000   1.0000   1.0000   1.0000
     1.0000   1.0000

          k = 0.0000 0.0000-0.1285 (   298 PWs)   bands (ev):

   -12.0696 -12.0696  18.3333  18.3333  35.5132  35.5132  35.5132  35.5132
    41.1530  41.1530  50.8138  50.8138  50.8138  50.8138  56.8333  56.8333
    66.2597  66.2597  66.2597  66.2597  70.7311  70.7311  72.3366  72.3366
    88.1316  88.1316

     occupation numbers 
     1.0000   1.0000   1.0000   1.0000   1.0000   1.0000   1.0000   1.0000
     1.0000   1.0000   1.0000   1.0000   1.0000   1.0000   1.0000   1.0000
     1.0000   1.0000   1.0000   1.0000   1.0000   1.0000   1.0000   1.0000
     1.0000   1.0000

          k = 0.0000 0.0962 0.0000 (   297 PWs)   bands (ev):

   -11.6763 -11.6631  18.5165  18.7545  32.4488  32.5069  34.3095  34.3493
    41.2639  43.5640  50.3632  50.6284  52.6812  52.7944  54.7819  60.6185
    63.6570  64.0789  65.8577  66.0206  70.7842  73.3365  73.8405  75.6367
    85.9860  86.4725

     occupation numbers 
     1.0000   1.0000   1.0000   1.0000   1.0000   1.0000   1.0000   1.0000
     1.0000   1.0000   1.0000   1.0000   1.0000   1.0000   1.0000   1.0000
     1.0000   1.0000   1.0000   1.0000   1.0000   1.0000   1.0000   1.0000
     1.0000   1.0000

          k = 0.0000 0.0962 0.0214 (   295 PWs)   bands (ev):

   -11.6761 -11.6630  18.5210  18.7502  32.4510  32.5239  34.3110  34.3529
    41.2933  43.5209  50.3664  50.6600  52.7195  52.7956  54.8805  60.4850
    63.6948  64.0939  65.8792  66.0246  70.8679  73.3379  73.8478  75.5966
    86.0023  86.4817

     occupation numbers 
     1.0000   1.0000   1.0000   1.0000   1.0000   1.0000   1.0000   1.0000
     1.0000   1.0000   1.0000   1.0000   1.0000   1.0000   1.0000   1.0000
     1.0000   1.0000   1.0000   1.0000   1.0000   1.0000   1.0000   1.0000
     1.0000   1.0000

          k = 0.0000 0.0962 0.0428 (   294 PWs)   bands (ev):

   -11.6755 -11.6638  18.5352  18.7376  32.4595  32.5172  34.3213  34.3954
    41.3825  43.3599  50.3984  50.6292  52.7454  52.7967  55.1656  60.1158
    63.7713  64.1173  65.9740  66.0235  71.1094  73.3002  73.8660  75.4390
    86.0364  86.4548

     occupation numbers 
     1.0000   1.0000   1.0000   1.0000   1.0000   1.0000   1.0000   1.0000
     1.0000   1.0000   1.0000   1.0000   1.0000   1.0000   1.0000   1.0000
     1.0000   1.0000   1.0000   1.0000   1.0000   1.0000   1.0000   1.0000
     1.0000   1.0000

          k = 0.0000 0.0962 0.0643 (   295 PWs)   bands (ev):

   -11.6744 -11.6649  18.5539  18.7180  32.4603  32.5142  34.3234  34.3936
    41.5230  43.0895  50.4166  50.6067  52.7435  52.7969  55.6081  59.5774
    63.8738  64.1066  65.9782  66.0160  71.4586  73.2293  73.9137  75.1684
    86.0920  86.4227

     occupation numbers 
     1.0000   1.0000   1.0000   1.0000   1.0000   1.0000   1.0000   1.0000
     1.0000   1.0000   1.0000   1.0000   1.0000   1.0000   1.0000   1.0000
     1.0000   1.0000   1.0000   1.0000   1.0000   1.0000   1.0000   1.0000
     1.0000   1.0000

          k = 0.0000 0.0962 0.0857 (   298 PWs)   bands (ev):

   -11.6733 -11.6666  18.5764  18.6923  32.4492  32.5019  34.3256  34.3777
    41.7119  42.8455  50.4155  50.5377  52.7308  52.7972  56.1680  58.9239
    63.8975  64.0868  65.9441  66.0094  71.8634  73.1247  73.9817  74.8692
    86.1455  86.3584

     occupation numbers 
     1.0000   1.0000   1.0000   1.0000   1.0000   1.0000   1.0000   1.0000
     1.0000   1.0000   1.0000   1.0000   1.0000   1.0000   1.0000   1.0000
     1.0000   1.0000   1.0000   1.0000   1.0000   1.0000   1.0000   1.0000
     1.0000   1.0000

          k = 0.0000 0.0962 0.1071 (   297 PWs)   bands (ev):

   -11.6718 -11.6683  18.6034  18.6625  32.4850  32.4966  34.3616  34.3768
    41.9411  42.5029  50.4440  50.5174  52.7504  52.8245  56.8086  58.2209
    64.0131  64.1029  65.9578  66.0375  72.2750  72.9176  74.0878  74.5410
    86.2134  86.3341

     occupation numbers 
     1.0000   1.0000   1.0000   1.0000   1.0000   1.0000   1.0000   1.0000
     1.0000   1.0000   1.0000   1.0000   1.0000   1.0000   1.0000   1.0000
     1.0000   1.0000   1.0000   1.0000   1.0000   1.0000   1.0000   1.0000
     1.0000   1.0000

          k = 0.0000 0.0962-0.1285 (   300 PWs)   bands (ev):

   -11.6703 -11.6703  18.6308  18.6308  32.4854  32.4854  34.3612  34.3612
    42.1857  42.1857  50.4753  50.4753  52.7489  52.7489  57.4970  57.4970
    64.0567  64.0567  65.9621  65.9621  72.6267  72.6267  74.2514  74.2514
    86.2577  86.2577

     occupation numbers 
     1.0000   1.0000   1.0000   1.0000   1.0000   1.0000   1.0000   1.0000
     1.0000   1.0000   1.0000   1.0000   1.0000   1.0000   1.0000   1.0000
     1.0000   1.0000   1.0000   1.0000   1.0000   1.0000   1.0000   1.0000
     1.0000   1.0000

          k = 0.0000 0.1925 0.0000 (   293 PWs)   bands (ev):

   -10.4873 -10.4747  19.3802  19.5987  26.7268  26.7908  31.9655  32.0258
    42.1042  43.7000  49.8478  51.7061  55.1639  57.5463  57.5878  58.9035
    60.2857  63.8021  65.2397  65.3986  72.0278  76.8826  80.7458  81.8167
    84.7357  85.3615

     occupation numbers 
     1.0000   1.0000   1.0000   1.0000   1.0000   1.0000   1.0000   1.0000
     1.0000   1.0000   1.0000   1.0000   1.0000   1.0000   1.0000   1.0000
     1.0000   1.0000   1.0000   1.0000   1.0000   1.0000   1.0000   1.0000
     1.0000   1.0000

          k = 0.0000 0.1925 0.0214 (   294 PWs)   bands (ev):

   -10.4875 -10.4748  19.3842  19.5949  26.7152  26.7883  31.9628  32.0127
    42.1283  43.6919  49.8494  51.6204  55.2993  57.5390  57.5863  58.8328
    60.2970  63.6667  65.2045  65.3908  72.1642  76.8728  80.7582  81.7915
    84.7490  85.3311

     occupation numbers 
     1.0000   1.0000   1.0000   1.0000   1.0000   1.0000   1.0000   1.0000
     1.0000   1.0000   1.0000   1.0000   1.0000   1.0000   1.0000   1.0000
     1.0000   1.0000   1.0000   1.0000   1.0000   1.0000   1.0000   1.0000
     1.0000   1.0000

          k = 0.0000 0.1925 0.0428 (   297 PWs)   bands (ev):

   -10.4874 -10.4758  19.3949  19.5822  26.7142  26.7464  31.9637  32.0115
    42.1942  43.5445  49.8690  51.4078  55.6604  57.5378  57.5869  58.7329
    60.3238  63.2931  65.2067  65.3861  72.5371  76.6760  80.7709  81.6685
    84.7831  85.2945

     occupation numbers 
     1.0000   1.0000   1.0000   1.0000   1.0000   1.0000   1.0000   1.0000
     1.0000   1.0000   1.0000   1.0000   1.0000   1.0000   1.0000   1.0000
     1.0000   1.0000   1.0000   1.0000   1.0000   1.0000   1.0000   1.0000
     1.0000   1.0000

          k = 0.0000 0.1925 0.0643 (   295 PWs)   bands (ev):

   -10.4863 -10.4764  19.4135  19.5646  26.7170  26.7467  31.9658  32.0185
    42.3043  43.4318  49.9395  51.1503  56.1696  57.5785  57.6429  58.6266
    60.4245  62.7702  65.2371  65.4041  73.0758  76.4475  80.8339  81.5573
    84.8399  85.2609

     occupation numbers 
     1.0000   1.0000   1.0000   1.0000   1.0000   1.0000   1.0000   1.0000
     1.0000   1.0000   1.0000   1.0000   1.0000   1.0000   1.0000   1.0000
     1.0000   1.0000   1.0000   1.0000   1.0000   1.0000   1.0000   1.0000
     1.0000   1.0000

          k = 0.0000 0.1925 0.0857 (   294 PWs)   bands (ev):

   -10.4851 -10.4776  19.4347  19.5411  26.7195  26.7465  31.9841  32.0419
    42.4492  43.2795  50.0367  50.8888  56.7384  57.6102  57.6599  58.4637
    60.5817  62.1924  65.2878  65.4074  73.6971  76.1041  80.8947  81.3966
    84.9166  85.2420

     occupation numbers 
     1.0000   1.0000   1.0000   1.0000   1.0000   1.0000   1.0000   1.0000
     1.0000   1.0000   1.0000   1.0000   1.0000   1.0000   1.0000   1.0000
     1.0000   1.0000   1.0000   1.0000   1.0000   1.0000   1.0000   1.0000
     1.0000   1.0000

          k = 0.0000 0.1925 0.1071 (   293 PWs)   bands (ev):

   -10.4832 -10.4800  19.4647  19.5190  26.7249  26.7364  32.0383  32.0420
    42.6706  43.1009  50.1954  50.6084  57.3153  57.6137  57.6180  58.1930
    60.8262  61.6427  65.3790  65.3935  74.4051  75.6663  80.9974  81.2525
    85.0156  85.1620

     occupation numbers 
     1.0000   1.0000   1.0000   1.0000   1.0000   1.0000   1.0000   1.0000
     1.0000   1.0000   1.0000   1.0000   1.0000   1.0000   1.0000   1.0000
     1.0000   1.0000   1.0000   1.0000   1.0000   1.0000   1.0000   1.0000
     1.0000   1.0000

          k = 0.0000 0.1925-0.1285 (   294 PWs)   bands (ev):

   -10.4816 -10.4816  19.4890  19.4890  26.7295  26.7295  32.0386  32.0386
    42.8570  42.8570  50.3844  50.3844  57.6154  57.6154  57.8070  57.8070
    61.1769  61.1769  65.3792  65.3792  75.0119  75.0119  81.1316  81.1316
    85.1027  85.1027

     occupation numbers 
     1.0000   1.0000   1.0000   1.0000   1.0000   1.0000   1.0000   1.0000
     1.0000   1.0000   1.0000   1.0000   1.0000   1.0000   1.0000   1.0000
     1.0000   1.0000   1.0000   1.0000   1.0000   1.0000   1.0000   1.0000
     1.0000   1.0000

          k = 0.0000 0.2887 0.0000 (   293 PWs)   bands (ev):

    -8.5449  -8.5321  20.4648  20.4903  20.6899  20.8731  29.6466  29.7089
    41.9601  42.7050  50.6201  52.9146  53.8119  54.0166  59.5873  63.9539
    64.1164  64.4456  64.6531  68.0338  73.5808  79.5518  83.4179  83.5923
    84.3189  87.1296

     occupation numbers 
     1.0000   1.0000   1.0000   1.0000   1.0000   1.0000   1.0000   1.0000
     1.0000   1.0000   1.0000   1.0000   1.0000   1.0000   1.0000   1.0000
     1.0000   1.0000   1.0000   1.0000   1.0000   1.0000   1.0000   1.0000
     1.0000   1.0000

          k = 0.0000 0.2887 0.0214 (   295 PWs)   bands (ev):

    -8.5448  -8.5323  20.4628  20.4854  20.6927  20.8695  29.6471  29.7087
    41.9702  42.6383  50.6447  52.8534  53.8121  53.9936  59.7237  63.9540
    64.1145  64.4468  64.6519  67.7681  73.8356  79.5001  83.4059  83.5220
    84.3361  87.0101

     occupation numbers 
     1.0000   1.0000   1.0000   1.0000   1.0000   1.0000   1.0000   1.0000
     1.0000   1.0000   1.0000   1.0000   1.0000   1.0000   1.0000   1.0000
     1.0000   1.0000   1.0000   1.0000   1.0000   1.0000   1.0000   1.0000
     1.0000   1.0000

          k = 0.0000 0.2887 0.0428 (   292 PWs)   bands (ev):

    -8.5409  -8.5326  20.4651  20.4903  20.7028  20.8699  29.6487  29.7091
    42.0394  42.6085  50.7572  52.6892  53.8219  53.9705  60.1131  64.0297
    64.1201  64.4563  64.6523  67.1307  74.5557  79.4318  83.3542  83.4758
    84.4016  86.7066

     occupation numbers 
     1.0000   1.0000   1.0000   1.0000   1.0000   1.0000   1.0000   1.0000
     1.0000   1.0000   1.0000   1.0000   1.0000   1.0000   1.0000   1.0000
     1.0000   1.0000   1.0000   1.0000   1.0000   1.0000   1.0000   1.0000
     1.0000   1.0000

          k = 0.0000 0.2887 0.0643 (   293 PWs)   bands (ev):

    -8.5406  -8.5334  20.4681  20.4884  20.7188  20.8530  29.6506  29.7040
    42.0902  42.5730  50.8780  52.4365  53.8229  53.9413  60.7083  63.9842
    64.0449  64.4596  64.6335  66.2344  75.3946  79.2917  83.2493  83.4323
    84.4886  86.2767

     occupation numbers 
     1.0000   1.0000   1.0000   1.0000   1.0000   1.0000   1.0000   1.0000
     1.0000   1.0000   1.0000   1.0000   1.0000   1.0000   1.0000   1.0000
     1.0000   1.0000   1.0000   1.0000   1.0000   1.0000   1.0000   1.0000
     1.0000   1.0000

          k = 0.0000 0.2887 0.0857 (   288 PWs)   bands (ev):

    -8.5379  -8.5334  20.4910  20.5048  20.7415  20.8335  29.6743  29.7359
    42.1648  42.5283  51.0744  52.1550  53.8922  53.9686  61.4603  64.0220
    64.0558  64.5439  64.6479  65.2509  76.2871  79.0278  83.2365  83.3972
    84.6783  85.8470

     occupation numbers 
     1.0000   1.0000   1.0000   1.0000   1.0000   1.0000   1.0000   1.0000
     1.0000   1.0000   1.0000   1.0000   1.0000   1.0000   1.0000   1.0000
     1.0000   1.0000   1.0000   1.0000   1.0000   1.0000   1.0000   1.0000
     1.0000   1.0000

          k = 0.0000 0.2887 0.1071 (   287 PWs)   bands (ev):

    -8.5364  -8.5345  20.4958  20.5030  20.7638  20.8189  29.6772  29.7373
    42.2741  42.4530  51.3069  51.8507  53.9129  53.9422  62.3182  64.0218
    64.0539  64.2564  64.5591  64.6531  77.2665  78.5988  83.2211  83.3404
    84.8863  85.4458

     occupation numbers 
     1.0000   1.0000   1.0000   1.0000   1.0000   1.0000   1.0000   1.0000
     1.0000   1.0000   1.0000   1.0000   1.0000   1.0000   1.0000   1.0000
     1.0000   1.0000   1.0000   1.0000   1.0000   1.0000   1.0000   1.0000
     1.0000   1.0000

          k = 0.0000 0.2887-0.1285 (   290 PWs)   bands (ev):

    -8.5360  -8.5360  20.4959  20.4959  20.7902  20.7902  29.6795  29.6795
    42.3534  42.3534  51.5455  51.5455  53.9168  53.9168  63.2558  63.2558
    64.0222  64.0222  64.5690  64.5690  78.0012  78.0012  83.2354  83.2354
    85.1121  85.1121

     occupation numbers 
     1.0000   1.0000   1.0000   1.0000   1.0000   1.0000   1.0000   1.0000
     1.0000   1.0000   1.0000   1.0000   1.0000   1.0000   1.0000   1.0000
     1.0000   1.0000   1.0000   1.0000   1.0000   1.0000   1.0000   1.0000
     1.0000   1.0000

          k = 0.0000 0.3849 0.0000 (   295 PWs)   bands (ev):

    -5.9223  -5.9171  14.4606  14.4871  22.2124  22.3693  27.8397  27.9007
    41.3041  41.5805  49.1615  49.5656  52.9897  56.9364  61.9454  63.7927
    63.9746  71.4586  71.5754  72.3101  75.2712  75.8403  81.6120  81.9863
    83.3488  85.1549

     occupation numbers 
     1.0000   1.0000   1.0000   1.0000   1.0000   1.0000   1.0000   1.0000
     1.0000   1.0000   1.0000   1.0000   1.0000   1.0000   1.0000   1.0000
     1.0000   1.0000   1.0000   1.0000   1.0000   1.0000   1.0000   1.0000
     1.0000   1.0000

          k = 0.0000 0.3849 0.0214 (   297 PWs)   bands (ev):

    -5.9222  -5.9172  14.4576  14.4859  22.2143  22.3666  27.8401  27.9006
    41.3065  41.5258  49.1661  49.5541  53.0375  56.7958  62.1282  63.7936
    63.9737  71.4591  71.5737  71.8298  75.7450  75.8928  81.2145  82.1766
    83.3486  85.3186

     occupation numbers 
     1.0000   1.0000   1.0000   1.0000   1.0000   1.0000   1.0000   1.0000
     1.0000   1.0000   1.0000   1.0000   1.0000   1.0000   1.0000   1.0000
     1.0000   1.0000   1.0000   1.0000   1.0000   1.0000   1.0000   1.0000
     1.0000   1.0000

          k = 0.0000 0.3849 0.0428 (   298 PWs)   bands (ev):

    -5.9240  -5.9174  14.4561  14.4853  22.2217  22.3456  27.8414  27.9008
    41.2941  41.5124  49.1786  49.5141  53.1696  56.4546  62.6275  63.7967
    63.9711  70.7570  71.4635  71.5703  76.0373  76.7158  80.5959  82.3300
    83.3596  85.6344

     occupation numbers 
     1.0000   1.0000   1.0000   1.0000   1.0000   1.0000   1.0000   1.0000
     1.0000   1.0000   1.0000   1.0000   1.0000   1.0000   1.0000   1.0000
     1.0000   1.0000   1.0000   1.0000   1.0000   1.0000   1.0000   1.0000
     1.0000   1.0000

          k = 0.0000 0.3849 0.0643 (   293 PWs)   bands (ev):

    -5.9234  -5.9164  14.4683  14.4910  22.2350  22.3364  27.8575  27.9316
    41.3218  41.5074  49.2184  49.5030  53.4077  56.0139  63.3525  63.8434
    63.9819  69.6279  71.5204  71.5662  76.2900  77.7350  80.0392  82.3894
    83.4789  85.6468

     occupation numbers 
     1.0000   1.0000   1.0000   1.0000   1.0000   1.0000   1.0000   1.0000
     1.0000   1.0000   1.0000   1.0000   1.0000   1.0000   1.0000   1.0000
     1.0000   1.0000   1.0000   1.0000   1.0000   1.0000   1.0000   1.0000
     1.0000   1.0000

          k = 0.0000 0.3849 0.0857 (   291 PWs)   bands (ev):

    -5.9229  -5.9204  14.4686  14.4813  22.2500  22.3279  27.8620  27.8822
    41.3722  41.4657  49.2247  49.4199  53.7410  55.4955  63.8590  63.9262
    64.2283  68.4880  71.5370  71.6423  76.6272  78.3227  80.0125  82.2979
    83.5676  85.1903

     occupation numbers 
     1.0000   1.0000   1.0000   1.0000   1.0000   1.0000   1.0000   1.0000
     1.0000   1.0000   1.0000   1.0000   1.0000   1.0000   1.0000   1.0000
     1.0000   1.0000   1.0000   1.0000   1.0000   1.0000   1.0000   1.0000
     1.0000   1.0000

          k = 0.0000 0.3849 0.1071 (   294 PWs)   bands (ev):

    -5.9245  -5.9220  14.4686  14.4794  22.2669  22.3057  27.8645  27.8790
    41.3851  41.4352  49.2613  49.3603  54.0820  54.9898  63.8655  63.9181
    65.1997  67.3485  71.5281  71.5433  77.0446  78.0100  80.7089  82.0132
    83.7288  84.5681

     occupation numbers 
     1.0000   1.0000   1.0000   1.0000   1.0000   1.0000   1.0000   1.0000
     1.0000   1.0000   1.0000   1.0000   1.0000   1.0000   1.0000   1.0000
     1.0000   1.0000   1.0000   1.0000   1.0000   1.0000   1.0000   1.0000
     1.0000   1.0000

          k = 0.0000 0.3849-0.1285 (   292 PWs)   bands (ev):

    -5.9230  -5.9230  14.4790  14.4790  22.2876  22.2876  27.8773  27.8773
    41.4161  41.4161  49.3299  49.3299  54.5159  54.5159  63.9116  63.9116
    66.2478  66.2478  71.5401  71.5401  77.5268  77.5268  81.4935  81.4935
    84.0633  84.0633

     occupation numbers 
     1.0000   1.0000   1.0000   1.0000   1.0000   1.0000   1.0000   1.0000
     1.0000   1.0000   1.0000   1.0000   1.0000   1.0000   1.0000   1.0000
     1.0000   1.0000   1.0000   1.0000   1.0000   1.0000   1.0000   1.0000
     1.0000   1.0000

          k = 0.0000 0.4811 0.0000 (   298 PWs)   bands (ev):

    -2.9279  -2.9206   9.3813   9.3936  23.5386  23.6185  26.7057  26.7679
    40.6433  40.7453  46.2299  46.6106  56.1813  59.5625  63.3781  63.5229
    65.4253  71.1642  73.4617  74.0610  79.4188  79.7899  80.3779  81.9672
    82.5521  83.8337

     occupation numbers 
     1.0000   1.0000   1.0000   1.0000   1.0000   1.0000   1.0000   1.0000
     1.0000   1.0000   1.0000   1.0000   1.0000   1.0000   1.0000   1.0000
     1.0000   1.0000   1.0000   1.0000   1.0000   1.0000   1.0000   1.0000
     1.0000   1.0000

          k = 0.0000 0.4811 0.0214 (   299 PWs)   bands (ev):

    -2.9235  -2.9194   9.3848   9.3954  23.5441  23.6230  26.7050  26.7612
    40.6448  40.7137  46.2696  46.6059  56.2259  59.4958  63.3779  63.5160
    65.5475  71.1885  72.7891  74.8956  79.4959  79.8298  79.9206  81.9975
    82.5679  84.2291

     occupation numbers 
     1.0000   1.0000   1.0000   1.0000   1.0000   1.0000   1.0000   1.0000
     1.0000   1.0000   1.0000   1.0000   1.0000   1.0000   1.0000   1.0000
     1.0000   1.0000   1.0000   1.0000   1.0000   1.0000   1.0000   1.0000
     1.0000   1.0000

          k = 0.0000 0.4811 0.0428 (   297 PWs)   bands (ev):

    -2.9238  -2.9190   9.3855   9.3979  23.5475  23.6315  26.7146  26.7504
    40.6675  40.7003  46.2798  46.5930  56.3765  59.2443  63.4083  63.4953
    65.8329  71.0464  72.2755  75.9998  78.9795  79.5438  79.8042  82.0199
    82.6234  85.1864

     occupation numbers 
     1.0000   1.0000   1.0000   1.0000   1.0000   1.0000   1.0000   1.0000
     1.0000   1.0000   1.0000   1.0000   1.0000   1.0000   1.0000   1.0000
     1.0000   1.0000   1.0000   1.0000   1.0000   1.0000   1.0000   1.0000
     1.0000   1.0000

          k = 0.0000 0.4811 0.0643 (   297 PWs)   bands (ev):

    -2.9238  -2.9192   9.3856   9.3977  23.5541  23.6240  26.7160  26.7467
    40.6746  40.6897  46.3012  46.5647  56.5839  58.8838  63.4112  63.4908
    66.2631  70.4278  72.4438  77.0063  78.0117  79.5617  79.7853  81.8832
    82.7137  85.7574

     occupation numbers 
     1.0000   1.0000   1.0000   1.0000   1.0000   1.0000   1.0000   1.0000
     1.0000   1.0000   1.0000   1.0000   1.0000   1.0000   1.0000   1.0000
     1.0000   1.0000   1.0000   1.0000   1.0000   1.0000   1.0000   1.0000
     1.0000   1.0000

          k = 0.0000 0.4811 0.0857 (   301 PWs)   bands (ev):

    -2.9243  -2.9197   9.3850   9.3909  23.5565  23.6137  26.7167  26.7304
    40.6713  40.6765  46.3175  46.5067  56.8601  58.4488  63.4114  63.4434
    66.7992  69.6453  72.9776  76.6251  78.4168  79.5467  79.6804  81.6071
    82.8357  85.0756

     occupation numbers 
     1.0000   1.0000   1.0000   1.0000   1.0000   1.0000   1.0000   1.0000
     1.0000   1.0000   1.0000   1.0000   1.0000   1.0000   1.0000   1.0000
     1.0000   1.0000   1.0000   1.0000   1.0000   1.0000   1.0000   1.0000
     1.0000   1.0000

          k = 0.0000 0.4811 0.1071 (   301 PWs)   bands (ev):

    -2.9250  -2.9228   9.3858   9.3881  23.5662  23.5895  26.7194  26.7261
    40.6629  40.6742  46.3530  46.4517  57.1926  58.0139  63.4179  63.4361
    67.4187  68.8350  73.7120  75.5580  79.4748  79.5794  79.6480  81.1558
    83.0824  84.1776

     occupation numbers 
     1.0000   1.0000   1.0000   1.0000   1.0000   1.0000   1.0000   1.0000
     1.0000   1.0000   1.0000   1.0000   1.0000   1.0000   1.0000   1.0000
     1.0000   1.0000   1.0000   1.0000   1.0000   1.0000   1.0000   1.0000
     1.0000   1.0000

          k = 0.0000 0.4811-0.1285 (   300 PWs)   bands (ev):

    -2.9230  -2.9230   9.3871   9.3871  23.5795  23.5795  26.7226  26.7226
    40.6695  40.6695  46.4136  46.4136  57.5853  57.5853  63.4285  63.4285
    68.0998  68.0998  74.5901  74.5901  79.6140  79.6140  80.4347  80.4347
    83.5097  83.5097

     occupation numbers 
     1.0000   1.0000   1.0000   1.0000   1.0000   1.0000   1.0000   1.0000
     1.0000   1.0000   1.0000   1.0000   1.0000   1.0000   1.0000   1.0000
     1.0000   1.0000   1.0000   1.0000   1.0000   1.0000   1.0000   1.0000
     1.0000   1.0000

          k = 0.0000-0.5774 0.0000 (   298 PWs)   bands (ev):

    -1.0712  -1.0598   6.8179   6.8352  24.1015  24.1461  26.2823  26.3419
    40.4208  40.4499  45.1866  45.4846  58.7071  59.9144  63.2240  63.2976
    69.3665  69.7713  70.1195  71.6924  80.7802  82.1945  85.1818  85.2746
    85.7791  85.8207

     occupation numbers 
     1.0000   1.0000   1.0000   1.0000   1.0000   1.0000   1.0000   1.0000
     1.0000   1.0000   1.0000   1.0000   1.0000   1.0000   1.0000   1.0000
     1.0000   1.0000   1.0000   1.0000   1.0000   1.0000   1.0000   1.0000
     1.0000   1.0000

          k = 0.0000-0.5774 0.0214 (   304 PWs)   bands (ev):

    -1.0686  -1.0601   6.8169   6.8273  24.0971  24.1296  26.3336  26.3612
    40.3908  40.4278  45.1708  45.4756  58.7038  59.8791  63.2463  63.3168
    69.0886  69.1136  70.8890  72.0220  80.7094  82.1695  83.9569  85.2139
    85.4279  85.7978

     occupation numbers 
     1.0000   1.0000   1.0000   1.0000   1.0000   1.0000   1.0000   1.0000
     1.0000   1.0000   1.0000   1.0000   1.0000   1.0000   1.0000   1.0000
     1.0000   1.0000   1.0000   1.0000   1.0000   1.0000   1.0000   1.0000
     1.0000   1.0000

          k = 0.0000-0.5774 0.0428 (   304 PWs)   bands (ev):

    -1.0690  -1.0601   6.8171   6.8271  24.0982  24.1270  26.3340  26.3562
    40.3929  40.4209  45.1834  45.4577  58.7914  59.8519  63.2481  63.3119
    68.3957  68.6178  71.9087  72.7804  80.3830  82.1082  82.6605  84.6407
    85.2507  85.7670

     occupation numbers 
     1.0000   1.0000   1.0000   1.0000   1.0000   1.0000   1.0000   1.0000
     1.0000   1.0000   1.0000   1.0000   1.0000   1.0000   1.0000   1.0000
     1.0000   1.0000   1.0000   1.0000   1.0000   1.0000   1.0000   1.0000
     1.0000   1.0000

          k = 0.0000-0.5774 0.0643 (   304 PWs)   bands (ev):

    -1.0692  -1.0600   6.8175   6.8269  24.1008  24.1237  26.3349  26.3517
[...]
    70.4837  70.4951  71.9442  72.1622  75.3004  76.1695  80.4658  81.9972
    82.7291  84.5530

     occupation numbers 
     1.0000   1.0000   1.0000   1.0000   1.0000   1.0000   1.0000   1.0000
     1.0000   1.0000   1.0000   1.0000   1.0000   1.0000   1.0000   1.0000
     1.0000   1.0000   1.0000   1.0000   1.0000   1.0000   1.0000   1.0000
     1.0000   1.0000

          k = 0.1667 0.5774 0.0428 (   296 PWs)   bands (ev):

    -0.1088  -0.0965   7.8463   7.8555  19.2699  19.3018  24.4656  24.5097
    45.2238  45.5383  49.2816  49.4343  59.3962  60.3139  60.5765  60.7997
    69.8172  69.9219  72.6831  73.1060  75.3119  76.0924  79.7798  81.5404
    83.1820  84.5787

     occupation numbers 
     1.0000   1.0000   1.0000   1.0000   1.0000   1.0000   1.0000   1.0000
     1.0000   1.0000   1.0000   1.0000   1.0000   1.0000   1.0000   1.0000
     1.0000   1.0000   1.0000   1.0000   1.0000   1.0000   1.0000   1.0000
     1.0000   1.0000

          k = 0.1667 0.5774 0.0643 (   291 PWs)   bands (ev):

    -0.1064  -0.0935   7.8468   7.8589  19.2766  19.3134  24.4738  24.5143
    45.2529  45.5189  49.3911  49.4451  59.4899  60.1964  60.6652  60.8771
    69.3050  69.4391  73.4998  74.1369  75.4481  76.0498  78.9750  80.8379
    83.6646  84.6350

     occupation numbers 
     1.0000   1.0000   1.0000   1.0000   1.0000   1.0000   1.0000   1.0000
     1.0000   1.0000   1.0000   1.0000   1.0000   1.0000   1.0000   1.0000
     1.0000   1.0000   1.0000   1.0000   1.0000   1.0000   1.0000   1.0000
     1.0000   1.0000

          k = 0.1667 0.5774 0.0857 (   292 PWs)   bands (ev):

    -0.0980  -0.0946   7.8533   7.8584  19.2773  19.2796  24.4862  24.5085
    45.3046  45.4819  49.3925  49.4360  59.6112  60.1149  60.7152  60.8596
    68.9265  69.0548  74.3355  75.3188  75.5813  75.9525  78.1417  79.9172
    84.0531  84.6764

     occupation numbers 
     1.0000   1.0000   1.0000   1.0000   1.0000   1.0000   1.0000   1.0000
     1.0000   1.0000   1.0000   1.0000   1.0000   1.0000   1.0000   1.0000
     1.0000   1.0000   1.0000   1.0000   1.0000   1.0000   1.0000   1.0000
     1.0000   1.0000

          k = 0.1667 0.5774 0.1071 (   294 PWs)   bands (ev):

    -0.0981  -0.0978   7.8518   7.8525  19.2744  19.2781  24.4864  24.4936
    45.3357  45.4166  49.3860  49.4132  59.7261  59.9728  60.7597  60.8505
    68.7183  68.7957  75.0944  75.7077  75.8151  76.5167  77.2446  78.7824
    84.3495  84.6580

     occupation numbers 
     1.0000   1.0000   1.0000   1.0000   1.0000   1.0000   1.0000   1.0000
     1.0000   1.0000   1.0000   1.0000   1.0000   1.0000   1.0000   1.0000
     1.0000   1.0000   1.0000   1.0000   1.0000   1.0000   1.0000   1.0000
     1.0000   1.0000

          k = 0.1667 0.5774-0.1285 (   292 PWs)   bands (ev):

    -0.0979  -0.0979   7.8527   7.8527  19.2775  19.2775  24.4900  24.4900
    45.3770  45.3770  49.4073  49.4073  59.8523  59.8523  60.8188  60.8188
    68.6795  68.6795  75.5510  75.5510  76.3700  76.3700  77.6852  77.6852
    84.5574  84.5574

     occupation numbers 
     1.0000   1.0000   1.0000   1.0000   1.0000   1.0000   1.0000   1.0000
     1.0000   1.0000   1.0000   1.0000   1.0000   1.0000   1.0000   1.0000
     1.0000   1.0000   1.0000   1.0000   1.0000   1.0000   1.0000   1.0000
     1.0000   1.0000

          k = 0.2500 0.4330 0.0000 (   287 PWs)   bands (ev):

    -2.1052  -2.1037  12.3409  12.3624  17.0003  17.0262  23.9466  24.0525
    46.4556  46.8497  52.9434  54.5506  57.2032  57.5691  59.9654  60.2601
    65.3231  66.7099  69.3268  75.8129  75.8715  77.7184  78.2341  80.2185
    82.8945  84.3724

     occupation numbers 
     1.0000   1.0000   1.0000   1.0000   1.0000   1.0000   1.0000   1.0000
     1.0000   1.0000   1.0000   1.0000   1.0000   1.0000   1.0000   1.0000
     1.0000   1.0000   1.0000   1.0000   1.0000   1.0000   1.0000   1.0000
     1.0000   1.0000

          k = 0.2500 0.4330 0.0214 (   290 PWs)   bands (ev):

    -2.1085  -2.1042  12.3409  12.3617  16.9987  17.0200  23.9441  24.0494
    46.4525  46.8364  52.9533  54.5167  57.2049  57.4591  59.9477  60.2601
    65.3326  66.6509  69.4298  75.8232  75.8786  76.8672  79.0973  80.1935
    82.7997  84.4460

     occupation numbers 
     1.0000   1.0000   1.0000   1.0000   1.0000   1.0000   1.0000   1.0000
     1.0000   1.0000   1.0000   1.0000   1.0000   1.0000   1.0000   1.0000
     1.0000   1.0000   1.0000   1.0000   1.0000   1.0000   1.0000   1.0000
     1.0000   1.0000

          k = 0.2500 0.4330 0.0428 (   290 PWs)   bands (ev):

    -2.1097  -2.1044  12.3541  12.3625  17.0002  17.0287  23.9502  24.0483
    46.4966  46.8020  53.0327  54.4289  57.2157  57.4660  60.0025  60.2631
    65.3689  66.5105  69.7392  75.7558  75.8729  75.9833  80.1714  80.1788
    82.5985  84.6871

     occupation numbers 
     1.0000   1.0000   1.0000   1.0000   1.0000   1.0000   1.0000   1.0000
     1.0000   1.0000   1.0000   1.0000   1.0000   1.0000   1.0000   1.0000
     1.0000   1.0000   1.0000   1.0000   1.0000   1.0000   1.0000   1.0000
     1.0000   1.0000

          k = 0.2500 0.4330 0.0643 (   292 PWs)   bands (ev):

    -2.1117  -2.1095  12.3517  12.3557  16.9953  17.0094  23.9563  24.0343
    46.4809  46.7627  53.1566  54.2804  57.1962  57.4500  60.0354  60.2195
    65.4368  66.2968  70.1650  74.8014  75.9387  75.9652  80.1016  81.0083
    82.5419  84.9844

     occupation numbers 
     1.0000   1.0000   1.0000   1.0000   1.0000   1.0000   1.0000   1.0000
     1.0000   1.0000   1.0000   1.0000   1.0000   1.0000   1.0000   1.0000
     1.0000   1.0000   1.0000   1.0000   1.0000   1.0000   1.0000   1.0000
     1.0000   1.0000

          k = 0.2500 0.4330 0.0857 (   288 PWs)   bands (ev):

    -2.1138  -2.1095  12.3560  12.3626  17.0099  17.0228  23.9657  24.0021
    46.5130  46.6963  53.2607  54.1512  57.3141  57.4382  60.0769  60.2103
    65.5168  66.1081  70.7365  73.7809  76.0097  76.0146  80.1252  81.0902
    83.1949  85.3305

     occupation numbers 
     1.0000   1.0000   1.0000   1.0000   1.0000   1.0000   1.0000   1.0000
     1.0000   1.0000   1.0000   1.0000   1.0000   1.0000   1.0000   1.0000
     1.0000   1.0000   1.0000   1.0000   1.0000   1.0000   1.0000   1.0000
     1.0000   1.0000

          k = 0.2500 0.4330 0.1071 (   288 PWs)   bands (ev):

    -2.1131  -2.1106  12.3563  12.3616  17.0110  17.0210  23.9773  23.9910
    46.5533  46.6501  53.4601  53.9345  57.3281  57.4238  60.1195  60.1945
    65.6345  65.9222  71.3934  72.9078  76.0508  76.0641  80.2465  80.8036
    84.2648  85.5996

     occupation numbers 
     1.0000   1.0000   1.0000   1.0000   1.0000   1.0000   1.0000   1.0000
     1.0000   1.0000   1.0000   1.0000   1.0000   1.0000   1.0000   1.0000
     1.0000   1.0000   1.0000   1.0000   1.0000   1.0000   1.0000   1.0000
     1.0000   1.0000

          k = 0.2500 0.4330-0.1285 (   292 PWs)   bands (ev):

    -2.1123  -2.1123  12.3562  12.3562  17.0127  17.0127  23.9821  23.9821
    46.5963  46.5963  53.6583  53.6583  57.3332  57.3332  60.1432  60.1432
    65.7431  65.7431  72.1170  72.1170  76.0722  76.0722  80.4741  80.4741
    85.3084  85.3084

     occupation numbers 
     1.0000   1.0000   1.0000   1.0000   1.0000   1.0000   1.0000   1.0000
     1.0000   1.0000   1.0000   1.0000   1.0000   1.0000   1.0000   1.0000
     1.0000   1.0000   1.0000   1.0000   1.0000   1.0000   1.0000   1.0000
     1.0000   1.0000

          k = 0.2500 0.5292 0.0000 (   295 PWs)   bands (ev):

     0.4057   0.4145   9.5699   9.5786  15.0925  15.1292  24.6778  24.7372
    45.2502  45.6503  55.3096  55.7736  59.1960  59.3420  59.5112  60.5420
    68.3984  69.8631  70.4620  72.7514  73.4165  74.8507  77.5250  79.1197
    82.2658  82.8282

     occupation numbers 
     1.0000   1.0000   1.0000   1.0000   1.0000   1.0000   1.0000   1.0000
     1.0000   1.0000   1.0000   1.0000   1.0000   1.0000   1.0000   1.0000
     1.0000   1.0000   1.0000   1.0000   1.0000   1.0000   1.0000   1.0000
     1.0000   1.0000

          k = 0.2500 0.5292 0.0214 (   293 PWs)   bands (ev):

     0.4064   0.4160   9.5737   9.5789  15.0931  15.1380  24.6799  24.7400
    45.2754  45.6445  55.3267  55.7649  59.1972  59.3437  59.5674  60.5546
    68.4201  69.8700  70.4496  72.7847  73.2770  75.1068  77.3461  79.3978
    82.2927  82.7512

     occupation numbers 
     1.0000   1.0000   1.0000   1.0000   1.0000   1.0000   1.0000   1.0000
     1.0000   1.0000   1.0000   1.0000   1.0000   1.0000   1.0000   1.0000
     1.0000   1.0000   1.0000   1.0000   1.0000   1.0000   1.0000   1.0000
     1.0000   1.0000

          k = 0.2500 0.5292 0.0428 (   293 PWs)   bands (ev):

     0.4106   0.4128   9.5745   9.5825  15.0968  15.1243  24.6829  24.7400
    45.2947  45.6277  55.3554  55.7428  59.1714  59.3142  59.6636  60.5343
    68.4590  69.7146  70.4521  72.5760  73.2769  75.6442  77.0115  79.9050
    82.1753  82.6787

     occupation numbers 
     1.0000   1.0000   1.0000   1.0000   1.0000   1.0000   1.0000   1.0000
     1.0000   1.0000   1.0000   1.0000   1.0000   1.0000   1.0000   1.0000
     1.0000   1.0000   1.0000   1.0000   1.0000   1.0000   1.0000   1.0000
     1.0000   1.0000

          k = 0.2500 0.5292 0.0643 (   293 PWs)   bands (ev):

     0.4092   0.4122   9.5744   9.5831  15.0990  15.1248  24.6902  24.7365
    45.3200  45.5962  55.3686  55.6920  59.1579  59.2900  59.7910  60.4650
    68.5258  69.5256  70.5296  72.1733  73.5517  75.8589  77.0466  80.5098
    81.7033  82.7998

     occupation numbers 
     1.0000   1.0000   1.0000   1.0000   1.0000   1.0000   1.0000   1.0000
     1.0000   1.0000   1.0000   1.0000   1.0000   1.0000   1.0000   1.0000
     1.0000   1.0000   1.0000   1.0000   1.0000   1.0000   1.0000   1.0000
     1.0000   1.0000

          k = 0.2500 0.5292 0.0857 (   294 PWs)   bands (ev):

     0.4101   0.4109   9.5782   9.5862  15.1019  15.1244  24.6958  24.7307
    45.3618  45.5519  55.3853  55.6557  59.1620  59.2488  59.9251  60.3868
    68.6166  69.3040  70.6454  71.7579  73.9070  75.5805  77.6686  80.8713
    81.3111  82.9029

     occupation numbers 
     1.0000   1.0000   1.0000   1.0000   1.0000   1.0000   1.0000   1.0000
     1.0000   1.0000   1.0000   1.0000   1.0000   1.0000   1.0000   1.0000
     1.0000   1.0000   1.0000   1.0000   1.0000   1.0000   1.0000   1.0000
     1.0000   1.0000

          k = 0.2500 0.5292 0.1071 (   293 PWs)   bands (ev):

     0.4100   0.4118   9.5772   9.5842  15.1037  15.1082  24.7009  24.7273
    45.3986  45.5109  55.4460  55.5883  59.1762  59.2185  60.0874  60.3157
    68.7578  69.1071  70.8460  71.4054  74.3068  75.1711  78.4667  80.1838
    81.8673  82.7928

     occupation numbers 
     1.0000   1.0000   1.0000   1.0000   1.0000   1.0000   1.0000   1.0000
     1.0000   1.0000   1.0000   1.0000   1.0000   1.0000   1.0000   1.0000
     1.0000   1.0000   1.0000   1.0000   1.0000   1.0000   1.0000   1.0000
     1.0000   1.0000

          k = 0.2500 0.5292-0.1285 (   294 PWs)   bands (ev):

     0.4114   0.4114   9.5802   9.5802  15.1058  15.1058  24.7134  24.7134
    45.4533  45.4533  55.5058  55.5058  59.1915  59.1915  60.2079  60.2079
    68.9144  68.9144  71.0891  71.0891  74.7201  74.7201  79.3361  79.3361
    82.3972  82.3972

     occupation numbers 
     1.0000   1.0000   1.0000   1.0000   1.0000   1.0000   1.0000   1.0000
     1.0000   1.0000   1.0000   1.0000   1.0000   1.0000   1.0000   1.0000
     1.0000   1.0000   1.0000   1.0000   1.0000   1.0000   1.0000   1.0000
     1.0000   1.0000

          k = 0.3333 0.5774 0.0000 (   303 PWs)   bands (ev):

     1.5168   1.5168   9.8582   9.8635  12.6372  12.6372  24.9593  24.9593
    44.9335  45.3825  58.5178  58.5178  58.6452  58.6452  61.2552  62.7599
    66.4397  66.4397  70.3425  74.2870  74.3677  74.3677  75.0167  78.1412
    78.1412  83.2863

     occupation numbers 
     1.0000   1.0000   1.0000   1.0000   1.0000   1.0000   1.0000   1.0000
     1.0000   1.0000   1.0000   1.0000   1.0000   1.0000   1.0000   1.0000
     1.0000   1.0000   1.0000   1.0000   1.0000   1.0000   1.0000   1.0000
     1.0000   1.0000

          k = 0.3333 0.5774 0.0214 (   303 PWs)   bands (ev):

     1.5169   1.5169   9.8582   9.8638  12.6373  12.6373  24.9595  24.9595
    44.9392  45.3766  58.4371  58.4371  58.7313  58.7313  61.2783  62.7367
    66.4343  66.4343  70.3670  73.8332  74.3236  74.3236  75.5339  78.2305
    78.2305  83.1892

     occupation numbers 
     1.0000   1.0000   1.0000   1.0000   1.0000   1.0000   1.0000   1.0000
     1.0000   1.0000   1.0000   1.0000   1.0000   1.0000   1.0000   1.0000
     1.0000   1.0000   1.0000   1.0000   1.0000   1.0000   1.0000   1.0000
     1.0000   1.0000

          k = 0.3333 0.5774 0.0428 (   303 PWs)   bands (ev):

     1.5172   1.5172   9.8582   9.8648  12.6375  12.6375  24.9599  24.9599
    44.9561  45.3594  58.3275  58.3275  58.8562  58.8562  61.3462  62.6688
    66.4198  66.4198  70.4411  73.2074  74.2111  74.2111  76.3471  78.4710
    78.4710  82.9026

     occupation numbers 
     1.0000   1.0000   1.0000   1.0000   1.0000   1.0000   1.0000   1.0000
     1.0000   1.0000   1.0000   1.0000   1.0000   1.0000   1.0000   1.0000
     1.0000   1.0000   1.0000   1.0000   1.0000   1.0000   1.0000   1.0000
     1.0000   1.0000

          k = 0.3333 0.5774 0.0643 (   291 PWs)   bands (ev):

     1.5313   1.5313   9.8665   9.8971  12.6445  12.6445  24.9851  24.9851
    45.1225  45.3325  58.3315  58.3315  59.0084  59.0084  61.6227  62.6159
    66.5006  66.5006  70.6427  72.6576  74.1141  74.1141  77.5713  78.8198
    78.8198  82.4422

     occupation numbers 
     1.0000   1.0000   1.0000   1.0000   1.0000   1.0000   1.0000   1.0000
     1.0000   1.0000   1.0000   1.0000   1.0000   1.0000   1.0000   1.0000
     1.0000   1.0000   1.0000   1.0000   1.0000   1.0000   1.0000   1.0000
     1.0000   1.0000

          k = 0.3333 0.5774 0.0857 (   294 PWs)   bands (ev):

     1.5297   1.5297   9.8688   9.8826  12.6423  12.6423  24.9771  24.9771
    45.1361  45.2976  58.2555  58.2555  59.0968  59.0968  61.7657  62.4653
    66.4736  66.4736  70.8174  72.1409  73.9854  73.9854  78.4622  79.1525
    79.1525  81.8276

     occupation numbers 
     1.0000   1.0000   1.0000   1.0000   1.0000   1.0000   1.0000   1.0000
     1.0000   1.0000   1.0000   1.0000   1.0000   1.0000   1.0000   1.0000
     1.0000   1.0000   1.0000   1.0000   1.0000   1.0000   1.0000   1.0000
     1.0000   1.0000

          k = 0.3333 0.5774 0.1071 (   288 PWs)   bands (ev):

     1.5297   1.5297   9.8724   9.8800  12.6496  12.6496  24.9833  24.9833
    45.1743  45.2586  58.2116  58.2116  59.2071  59.2071  61.9332  62.2959
    66.5312  66.5312  71.0539  71.7139  73.9095  73.9095  79.3847  79.4091
    79.4091  81.0989

     occupation numbers 
     1.0000   1.0000   1.0000   1.0000   1.0000   1.0000   1.0000   1.0000
     1.0000   1.0000   1.0000   1.0000   1.0000   1.0000   1.0000   1.0000
     1.0000   1.0000   1.0000   1.0000   1.0000   1.0000   1.0000   1.0000
     1.0000   1.0000

          k = 0.3333 0.5774-0.1285 (   288 PWs)   bands (ev):

     1.5296   1.5296   9.8759   9.8759  12.6495  12.6495  24.9831  24.9831
    45.2161  45.2161  58.1956  58.1956  59.2275  59.2275  62.1140  62.1140
    66.5238  66.5238  71.3497  71.3497  73.8797  73.8797  79.5015  79.5015
    80.2708  80.2708

     occupation numbers 
     1.0000   1.0000   1.0000   1.0000   1.0000   1.0000   1.0000   1.0000
     1.0000   1.0000   1.0000   1.0000   1.0000   1.0000   1.0000   1.0000
     1.0000   1.0000   1.0000   1.0000   1.0000   1.0000   1.0000   1.0000
     1.0000   1.0000

     highest occupied level (ev):    88.4690

!    total energy              =    -931.23744282 Ry

     total all-electron energy =    -19327.897865 Ry
     estimated scf accuracy    <          2.0E-09 Ry

     The total energy is the sum of the following terms:
     one-electron contribution =      77.10013924 Ry
     hartree contribution      =     112.57701421 Ry
     xc contribution           =     -85.21193667 Ry
     ewald contribution        =    -392.33788791 Ry
     one-center paw contrib.   =    -643.36477169 Ry
      -> PAW hartree energy AE =     322.56570272 Ry
      -> PAW hartree energy PS =    -321.52261373 Ry
      -> PAW xc energy AE      =    -266.08074218 Ry
      -> PAW xc energy PS      =      36.77109567 Ry
      -> total E_H with PAW    =     113.62010319 Ry
      -> total E_XC with PAW   =    -314.52158317 Ry

     convergence has been achieved in  19 iterations

     Writing all to output data dir ./out/MoS2.save/

     init_run     :      0.55s CPU      0.58s WALL (       1 calls)
     electrons    :     28.86s CPU     30.12s WALL (       1 calls)

     Called by init_run:
     wfcinit      :      0.36s CPU      0.38s WALL (       1 calls)
     wfcinit:atom :      0.00s CPU      0.00s WALL (     133 calls)
     wfcinit:wfcr :      0.33s CPU      0.35s WALL (     133 calls)
     potinit      :      0.12s CPU      0.12s WALL (       1 calls)
     hinit0       :      0.06s CPU      0.07s WALL (       1 calls)

     Called by electrons:
     c_bands      :     25.22s CPU     26.22s WALL (      19 calls)
     sum_band     :      1.62s CPU      1.74s WALL (      19 calls)
     v_of_rho     :      0.02s CPU      0.02s WALL (      20 calls)
     v_h          :      0.00s CPU      0.00s WALL (      20 calls)
     v_xc         :      0.01s CPU      0.01s WALL (      20 calls)
     newd         :      0.03s CPU      0.03s WALL (      20 calls)
     PAW_pot      :      2.07s CPU      2.19s WALL (      20 calls)
     mix_rho      :      0.01s CPU      0.01s WALL (      19 calls)

     Called by c_bands:
     init_us_2    :      0.17s CPU      0.18s WALL (    5187 calls)
     init_us_2:cp :      0.17s CPU      0.18s WALL (    5187 calls)
     cegterg      :     24.81s CPU     25.80s WALL (    2527 calls)

     Called by sum_band:
     sum_band:wei :      0.00s CPU      0.00s WALL (      19 calls)
     sum_band:loo :      1.57s CPU      1.70s WALL (      19 calls)
     sum_band:buf :      0.01s CPU      0.01s WALL (    2527 calls)
     sum_band:ini :      0.08s CPU      0.09s WALL (    2527 calls)
     sum_band:cal :      0.20s CPU      0.21s WALL (    2527 calls)
     sum_band:bec :      0.03s CPU      0.03s WALL (    2527 calls)
     addusdens    :      0.03s CPU      0.03s WALL (      19 calls)
     addusd:skk   :      0.00s CPU      0.00s WALL (      38 calls)
     addusd:dgemm :      0.00s CPU      0.00s WALL (      38 calls)
     addusd:qvan2 :      0.01s CPU      0.01s WALL (      38 calls)

     Called by *egterg:
     cdiaghg      :     12.93s CPU     13.42s WALL (   15246 calls)
     cegterg:over :      0.98s CPU      1.02s WALL (   12719 calls)
     cegterg:upda :      0.11s CPU      0.11s WALL (   12719 calls)
     cegterg:last :      0.15s CPU      0.15s WALL (    6987 calls)
     h_psi        :      9.66s CPU     10.08s WALL (   15379 calls)
     s_psi        :      0.21s CPU      0.22s WALL (   15379 calls)
     g_psi        :      0.03s CPU      0.03s WALL (   12719 calls)

     Called by h_psi:
     h_psi:calbec :      0.82s CPU      0.86s WALL (   15379 calls)
     vloc_psi     :      8.52s CPU      8.89s WALL (   15379 calls)
     add_vuspsi   :      0.23s CPU      0.25s WALL (   15379 calls)

     General routines
     calbec       :      0.99s CPU      1.04s WALL (   17906 calls)
     fft          :      0.01s CPU      0.01s WALL (     220 calls)
     ffts         :      0.00s CPU      0.00s WALL (      19 calls)
     fftw         :      9.00s CPU      9.44s WALL (  504260 calls)

     Parallel routines

     PAW routines
     PAW_pot      :      2.07s CPU      2.19s WALL (      20 calls)
     PAW_symme    :      0.01s CPU      0.01s WALL (      39 calls)

     PWSCF        :     29.74s CPU     31.32s WALL


   This run was terminated on:  17:13:56  13Jul2022            

=------------------------------------------------------------------------------=
   JOB DONE.
=------------------------------------------------------------------------------=
