
     Program PWSCF v.7.0 starts on 13Jul2022 at 17:42:30 
        Git branch: master
        Last git commit: 28725dfbb9ee577d70cbdc372282dc9039605ca5
        Last git commit date: Tue Dec 21 15:37:27 2021 +0000
        Last git commit subject: Merge branch merge-develop-to-master into mas..

     This program is part of the open-source Quantum ESPRESSO suite
     for quantum simulation of materials; please cite
         "P. Giannozzi et al., J. Phys.:Condens. Matter 21 395502 (2009);
         "P. Giannozzi et al., J. Phys.:Condens. Matter 29 465901 (2017);
         "P. Giannozzi et al., J. Chem. Phys. 152 154105 (2020);
          URL http://www.quantum-espresso.org", 
     in publications or presentations arising from this work. More details at
     http://www.quantum-espresso.org/quote

     Parallel version (MPI), running on    15 processors

     MPI processes distributed on     1 nodes
     R & G space division:  proc/nbgrp/npool/nimage =      15
     748518 MiB available memory on the printing compute node when the environment starts

     Reading input from mos2_vc_relax.in

     Current dimensions of program PWSCF are:
     Max number of different atomic species (ntypx) = 10
     Max number of k-points (npk) =  40000
     Max angular momentum in pseudopotentials (lmaxx) =  4
     file Mo.pbe-spn-kjpaw_psl.1.0.0.UPF: wavefunction(s)  4S 4D renormalized
     file S.pbe-nl-kjpaw_psl.1.0.0.UPF: wavefunction(s)  3S renormalized

     Subspace diagonalization in iterative solution of the eigenvalue problem:
     a serial algorithm will be used


     Parallelization info
     --------------------
     sticks:   dense  smooth     PW     G-vecs:    dense   smooth      PW
     Min          20      20      6                 1310     1310     224
     Max          21      21      7                 1325     1325     237
     Sum         301     301     91                19707    19707    3493

     Using Slab Decomposition



     bravais-lattice index     =            4
     lattice parameter (alat)  =       6.0288  a.u.
     unit-cell volume          =     885.0514 (a.u.)^3
     number of atoms/cell      =            6
     number of atomic types    =            2
     number of electrons       =        52.00
     number of Kohn-Sham states=           26
     kinetic-energy cutoff     =      30.0000  Ry
     charge density cutoff     =     120.0000  Ry
     scf convergence threshold =      1.0E-08
     mixing beta               =       0.7000
     number of iterations used =            8  plain     mixing
     energy convergence thresh.=      1.0E-06
     force convergence thresh. =      1.0E-05
     press convergence thresh. =      5.0E-01
     Exchange-correlation= SLA  PW   PBX  PBC
                           (   1   4   3   4   0   0   0)
     nstep                     =           50


     celldm(1)=   6.028823  celldm(2)=   0.000000  celldm(3)=   4.663803
     celldm(4)=   0.000000  celldm(5)=   0.000000  celldm(6)=   0.000000

     crystal axes: (cart. coord. in units of alat)
               a(1) = (   1.000000   0.000000   0.000000 )  
               a(2) = (  -0.500000   0.866025   0.000000 )  
               a(3) = (   0.000000   0.000000   4.663803 )  

     reciprocal axes: (cart. coord. in units 2 pi/alat)
               b(1) = (  1.000000  0.577350 -0.000000 )  
               b(2) = (  0.000000  1.154701  0.000000 )  
               b(3) = (  0.000000 -0.000000  0.214417 )  


     PseudoPot. # 1 for Mo read from file:
     ./pseudo/Mo.pbe-spn-kjpaw_psl.1.0.0.UPF
     MD5 check sum: 4396e0c640fcce5c25f020efccf1ab12
     Pseudo is Projector augmented-wave + core cor, Zval = 14.0
     Generated using &quot;atomic&quot; code by A. Dal Corso  v.6.3
     Shape of augmentation charge: PSQ
     Using radial grid of 1229 points,  6 beta functions with: 
                l(1) =   0
                l(2) =   0
                l(3) =   1
                l(4) =   1
                l(5) =   2
                l(6) =   2
     Q(r) pseudized with 0 coefficients 


     PseudoPot. # 2 for S  read from file:
     ./pseudo/S.pbe-nl-kjpaw_psl.1.0.0.UPF
     MD5 check sum: a0db168fa6a42edaf368e88c1856b871
     Pseudo is Projector augmented-wave + core cor, Zval =  6.0
     Generated using &quot;atomic&quot; code by A. Dal Corso  v.6.3
     Shape of augmentation charge: PSQ
     Using radial grid of 1151 points,  4 beta functions with: 
                l(1) =   0
                l(2) =   0
                l(3) =   1
                l(4) =   1
     Q(r) pseudized with 0 coefficients 


     atomic species   valence    mass     pseudopotential
        Mo            14.00    95.96000     Mo( 1.00)
        S              6.00    32.06500     S ( 1.00)

     24 Sym. Ops., with inversion, found (12 have fractional translation)



   Cartesian axes

     site n.     atom                  positions (alat units)
         1           Mo  tau(   1) = (  -0.0000000   0.5773503   1.1659506  )
         2           Mo  tau(   2) = (   0.5000000   0.2886751   3.4978519  )
         3           S   tau(   3) = (  -0.0000000   0.5773503   3.9883627  )
         4           S   tau(   4) = (   0.5000000   0.2886751   0.6754399  )
         5           S   tau(   5) = (   0.5000000   0.2886751   1.6564614  )
         6           S   tau(   6) = (   0.0000000   0.5773503   3.0073412  )

     number of k points=    38
                       cart. coord. in units 2pi/alat
        k(    1) = (   0.0000000   0.0000000   0.0000000), wk =   0.0069444
        k(    2) = (   0.0000000   0.0000000  -0.1072087), wk =   0.0069444
        k(    3) = (   0.0000000   0.0962250   0.0000000), wk =   0.0416667
        k(    4) = (   0.0000000   0.0962250  -0.1072087), wk =   0.0416667
        k(    5) = (   0.0000000   0.1924501   0.0000000), wk =   0.0416667
        k(    6) = (   0.0000000   0.1924501  -0.1072087), wk =   0.0416667
        k(    7) = (   0.0000000   0.2886751   0.0000000), wk =   0.0416667
        k(    8) = (   0.0000000   0.2886751  -0.1072087), wk =   0.0416667
        k(    9) = (   0.0000000   0.3849002   0.0000000), wk =   0.0416667
        k(   10) = (   0.0000000   0.3849002  -0.1072087), wk =   0.0416667
        k(   11) = (   0.0000000   0.4811252   0.0000000), wk =   0.0416667
        k(   12) = (   0.0000000   0.4811252  -0.1072087), wk =   0.0416667
        k(   13) = (   0.0000000  -0.5773503   0.0000000), wk =   0.0208333
        k(   14) = (   0.0000000  -0.5773503  -0.1072087), wk =   0.0208333
        k(   15) = (   0.0833333   0.1443376   0.0000000), wk =   0.0416667
        k(   16) = (   0.0833333   0.1443376  -0.1072087), wk =   0.0416667
        k(   17) = (   0.0833333   0.2405626   0.0000000), wk =   0.0833333
        k(   18) = (   0.0833333   0.2405626  -0.1072087), wk =   0.0833333
        k(   19) = (   0.0833333   0.3367877   0.0000000), wk =   0.0833333
        k(   20) = (   0.0833333   0.3367877  -0.1072087), wk =   0.0833333
        k(   21) = (   0.0833333   0.4330127   0.0000000), wk =   0.0833333
        k(   22) = (   0.0833333   0.4330127  -0.1072087), wk =   0.0833333
        k(   23) = (   0.0833333   0.5292377   0.0000000), wk =   0.0833333
        k(   24) = (   0.0833333   0.5292377  -0.1072087), wk =   0.0833333
        k(   25) = (   0.1666667   0.2886751   0.0000000), wk =   0.0416667
        k(   26) = (   0.1666667   0.2886751  -0.1072087), wk =   0.0416667
        k(   27) = (   0.1666667   0.3849002   0.0000000), wk =   0.0833333
        k(   28) = (   0.1666667   0.3849002  -0.1072087), wk =   0.0833333
        k(   29) = (   0.1666667   0.4811252   0.0000000), wk =   0.0833333
        k(   30) = (   0.1666667   0.4811252  -0.1072087), wk =   0.0833333
        k(   31) = (   0.1666667   0.5773503   0.0000000), wk =   0.0416667
        k(   32) = (   0.1666667   0.5773503  -0.1072087), wk =   0.0416667
        k(   33) = (   0.2500000   0.4330127   0.0000000), wk =   0.0416667
        k(   34) = (   0.2500000   0.4330127  -0.1072087), wk =   0.0416667
        k(   35) = (   0.2500000   0.5292377   0.0000000), wk =   0.0833333
        k(   36) = (   0.2500000   0.5292377  -0.1072087), wk =   0.0833333
        k(   37) = (   0.3333333   0.5773503   0.0000000), wk =   0.0138889
        k(   38) = (   0.3333333   0.5773503  -0.1072087), wk =   0.0138889

     Dense  grid:    19707 G-vectors     FFT dimensions: (  24,  24, 100)

     Estimated max dynamical RAM per process >      11.10 MB

     Estimated total dynamical RAM >     166.49 MB

     Check: negative core charge=   -0.000012

     Initial potential from superposition of free atoms

     starting charge      51.9981, renormalised to      52.0000
     Starting wfcs are   36 randomized atomic wfcs
     Checking if some PAW data can be deallocated... 

     total cpu time spent up to now is        0.8 secs

     per-process dynamical memory:    43.2 Mb

     Self-consistent Calculation

     iteration #  1     ecut=    30.00 Ry     beta= 0.70
     Davidson diagonalization with overlap
     ethr =  1.00E-02,  avg # of iterations =  2.0

     Threshold (ethr) on eigenvalues was too large:
     Diagonalizing with lowered threshold

     Davidson diagonalization with overlap
     ethr =  2.86E-04,  avg # of iterations =  3.4

     total cpu time spent up to now is        1.9 secs

     total energy              =    -993.19650284 Ry
     estimated scf accuracy    <       0.21986820 Ry

     iteration #  2     ecut=    30.00 Ry     beta= 0.70
     Davidson diagonalization with overlap
     ethr =  4.23E-04,  avg # of iterations =  3.3

     total cpu time spent up to now is        2.5 secs

     total energy              =    -993.22357968 Ry
     estimated scf accuracy    <       0.17415798 Ry

     iteration #  3     ecut=    30.00 Ry     beta= 0.70
     Davidson diagonalization with overlap
     ethr =  3.35E-04,  avg # of iterations =  4.1

     total cpu time spent up to now is        3.1 secs

     total energy              =    -993.25743495 Ry
     estimated scf accuracy    <       0.09925804 Ry

     iteration #  4     ecut=    30.00 Ry     beta= 0.70
     Davidson diagonalization with overlap
     ethr =  1.91E-04,  avg # of iterations =  3.5

     total cpu time spent up to now is        3.7 secs

     total energy              =    -993.26982826 Ry
     estimated scf accuracy    <       0.00315364 Ry

     iteration #  5     ecut=    30.00 Ry     beta= 0.70
     Davidson diagonalization with overlap
     ethr =  6.06E-06,  avg # of iterations =  6.4

     total cpu time spent up to now is        4.6 secs

     total energy              =    -993.27213439 Ry
     estimated scf accuracy    <       0.02224689 Ry

     iteration #  6     ecut=    30.00 Ry     beta= 0.70
     Davidson diagonalization with overlap
     ethr =  6.06E-06,  avg # of iterations =  4.4

     total cpu time spent up to now is        5.3 secs

     total energy              =    -993.27248946 Ry
     estimated scf accuracy    <       0.00290158 Ry

     iteration #  7     ecut=    30.00 Ry     beta= 0.70
     Davidson diagonalization with overlap
     ethr =  5.58E-06,  avg # of iterations =  4.8

     total cpu time spent up to now is        6.0 secs

     total energy              =    -993.27354224 Ry
     estimated scf accuracy    <       0.00076500 Ry

     iteration #  8     ecut=    30.00 Ry     beta= 0.70
     Davidson diagonalization with overlap
     ethr =  1.47E-06,  avg # of iterations =  1.6

     total cpu time spent up to now is        6.5 secs

     total energy              =    -993.27334801 Ry
     estimated scf accuracy    <       0.00053659 Ry

     iteration #  9     ecut=    30.00 Ry     beta= 0.70
     Davidson diagonalization with overlap
     ethr =  1.03E-06,  avg # of iterations =  3.9

     total cpu time spent up to now is        7.1 secs

     total energy              =    -993.27348535 Ry
     estimated scf accuracy    <       0.00002923 Ry

     iteration # 10     ecut=    30.00 Ry     beta= 0.70
     Davidson diagonalization with overlap
     ethr =  5.62E-08,  avg # of iterations =  4.5

     total cpu time spent up to now is        7.7 secs

     total energy              =    -993.27348055 Ry
     estimated scf accuracy    <       0.00005578 Ry

     iteration # 11     ecut=    30.00 Ry     beta= 0.70
     Davidson diagonalization with overlap
     ethr =  5.62E-08,  avg # of iterations =  3.3

     total cpu time spent up to now is        8.3 secs

     total energy              =    -993.27348129 Ry
     estimated scf accuracy    <       0.00000947 Ry

     iteration # 12     ecut=    30.00 Ry     beta= 0.70
     Davidson diagonalization with overlap
     ethr =  1.82E-08,  avg # of iterations =  4.5

     total cpu time spent up to now is        9.0 secs

     total energy              =    -993.27348499 Ry
     estimated scf accuracy    <       0.00000260 Ry

     iteration # 13     ecut=    30.00 Ry     beta= 0.70
     Davidson diagonalization with overlap
     ethr =  5.00E-09,  avg # of iterations =  1.6

     total cpu time spent up to now is        9.5 secs

     total energy              =    -993.27348464 Ry
     estimated scf accuracy    <       0.00000182 Ry

     iteration # 14     ecut=    30.00 Ry     beta= 0.70
     Davidson diagonalization with overlap
     ethr =  3.50E-09,  avg # of iterations =  2.3

     total cpu time spent up to now is       10.0 secs

     total energy              =    -993.27348482 Ry
     estimated scf accuracy    <       0.00000027 Ry

     iteration # 15     ecut=    30.00 Ry     beta= 0.70
     Davidson diagonalization with overlap
     ethr =  5.19E-10,  avg # of iterations =  2.8

     total cpu time spent up to now is       10.5 secs

     total energy              =    -993.27348486 Ry
     estimated scf accuracy    <       0.00000024 Ry

     iteration # 16     ecut=    30.00 Ry     beta= 0.70
     Davidson diagonalization with overlap
     ethr =  4.68E-10,  avg # of iterations =  1.1

     total cpu time spent up to now is       10.9 secs

     total energy              =    -993.27348467 Ry
     estimated scf accuracy    <       0.00000028 Ry

     iteration # 17     ecut=    30.00 Ry     beta= 0.70
     Davidson diagonalization with overlap
     ethr =  4.68E-10,  avg # of iterations =  5.6

     total cpu time spent up to now is       11.7 secs

     total energy              =    -993.27348495 Ry
     estimated scf accuracy    <       0.00000130 Ry

     iteration # 18     ecut=    30.00 Ry     beta= 0.70
     Davidson diagonalization with overlap
     ethr =  4.68E-10,  avg # of iterations =  1.0

     total cpu time spent up to now is       12.2 secs

     total energy              =    -993.27348483 Ry
     estimated scf accuracy    <       0.00000101 Ry

     iteration # 19     ecut=    30.00 Ry     beta= 0.70
     Davidson diagonalization with overlap
     ethr =  4.68E-10,  avg # of iterations =  2.8

     total cpu time spent up to now is       12.7 secs

     total energy              =    -993.27348487 Ry
     estimated scf accuracy    <       0.00000038 Ry

     iteration # 20     ecut=    30.00 Ry     beta= 0.70
     Davidson diagonalization with overlap
     ethr =  4.68E-10,  avg # of iterations =  1.0

     total cpu time spent up to now is       13.1 secs

     total energy              =    -993.27348483 Ry
     estimated scf accuracy    <       0.00000038 Ry

     iteration # 21     ecut=    30.00 Ry     beta= 0.70
     Davidson diagonalization with overlap
     ethr =  4.68E-10,  avg # of iterations =  1.4

     total cpu time spent up to now is       13.6 secs

     total energy              =    -993.27348484 Ry
     estimated scf accuracy    <       0.00000019 Ry

     iteration # 22     ecut=    30.00 Ry     beta= 0.70
     Davidson diagonalization with overlap
     ethr =  3.72E-10,  avg # of iterations =  1.0

     total cpu time spent up to now is       14.0 secs

     total energy              =    -993.27348482 Ry
     estimated scf accuracy    <       0.00000019 Ry

     iteration # 23     ecut=    30.00 Ry     beta= 0.70
     Davidson diagonalization with overlap
     ethr =  3.72E-10,  avg # of iterations =  2.0

     total cpu time spent up to now is       14.5 secs

     total energy              =    -993.27348481 Ry
     estimated scf accuracy    <       0.00000006 Ry

     iteration # 24     ecut=    30.00 Ry     beta= 0.70
     Davidson diagonalization with overlap
     ethr =  1.11E-10,  avg # of iterations =  5.2

     total cpu time spent up to now is       15.2 secs

     total energy              =    -993.27348483 Ry
     estimated scf accuracy    <       0.00000001 Ry

     iteration # 25     ecut=    30.00 Ry     beta= 0.70
     Davidson diagonalization with overlap
     ethr =  2.68E-11,  avg # of iterations =  3.1

     total cpu time spent up to now is       15.7 secs

     total energy              =    -993.27348484 Ry
     estimated scf accuracy    <       0.00000002 Ry

     iteration # 26     ecut=    30.00 Ry     beta= 0.70
     Davidson diagonalization with overlap
     ethr =  2.68E-11,  avg # of iterations =  1.0

     total cpu time spent up to now is       16.1 secs

     total energy              =    -993.27348483 Ry
     estimated scf accuracy    <       0.00000002 Ry

     iteration # 27     ecut=    30.00 Ry     beta= 0.70
     Davidson diagonalization with overlap
     ethr =  2.68E-11,  avg # of iterations =  1.3

     total cpu time spent up to now is       16.6 secs

     total energy              =    -993.27348483 Ry
     estimated scf accuracy    <       0.00000001 Ry

     iteration # 28     ecut=    30.00 Ry     beta= 0.70
     Davidson diagonalization with overlap
     ethr =  2.43E-11,  avg # of iterations =  1.0

     total cpu time spent up to now is       17.0 secs

     End of self-consistent calculation

          k = 0.0000 0.0000 0.0000 (  2413 PWs)   bands (ev):

   -53.7954 -53.7940 -27.8958 -27.8911 -27.6915 -27.6915 -27.6908 -27.6908
    -6.7094  -6.6906  -5.4276  -5.3933   1.6847   1.8556   4.7816   4.7816
     4.7855   4.7855   5.3148   5.8858   5.8861   5.8861   5.8886   5.8886
     7.1990   7.6086

          k = 0.0000 0.0000-0.1072 (  2438 PWs)   bands (ev):

   -53.7957 -53.7957 -27.8975 -27.8975 -27.6920 -27.6920 -27.6920 -27.6920
    -6.7002  -6.7002  -5.4106  -5.4106   1.7628   1.7628   4.7818   4.7818
     4.7818   4.7818   5.5731   5.5731   5.8799   5.8799   5.8799   5.8799
     7.4240   7.4240

          k = 0.0000 0.0962 0.0000 (  2449 PWs)   bands (ev):

   -53.7943 -53.7931 -27.8933 -27.8880 -27.7194 -27.7191 -27.6986 -27.6977
    -6.6089  -6.5900  -5.3851  -5.3519   1.8007   1.9700   4.5437   4.5487
     4.8762   4.8841   4.9631   5.2431   5.7143   5.7234   6.0857   6.3426
     7.1719   7.5104

          k = 0.0000 0.0962-0.1072 (  2454 PWs)   bands (ev):

   -53.7939 -53.7939 -27.8927 -27.8927 -27.7184 -27.7184 -27.6979 -27.6979
    -6.5995  -6.5995  -5.3684  -5.3684   1.8787   1.8787   4.5458   4.5458
     4.8842   4.8842   5.1130   5.1130   5.7172   5.7172   6.1795   6.1795
     7.3617   7.3617

          k = 0.0000 0.1925 0.0000 (  2463 PWs)   bands (ev):

   -53.7887 -53.7871 -27.8804 -27.8758 -27.7873 -27.7854 -27.7161 -27.7148
    -6.3219  -6.3035  -5.2636  -5.2338   2.0979   2.2588   4.0072   4.0148
     4.3865   4.5575   5.1670   5.1749   5.3311   5.3399   6.1464   6.4151
     7.0033   7.1781

          k = 0.0000 0.1925-0.1072 (  2464 PWs)   bands (ev):

   -53.7880 -53.7880 -27.8788 -27.8788 -27.7863 -27.7863 -27.7151 -27.7151
    -6.3127  -6.3127  -5.2486  -5.2486   2.1747   2.1747   4.0101   4.0101
     4.4785   4.4785   5.1721   5.1721   5.3340   5.3340   6.2589   6.2589
     7.1089   7.1089

          k = 0.0000 0.2887 0.0000 (  2457 PWs)   bands (ev):

   -53.7796 -53.7788 -27.8759 -27.8744 -27.8624 -27.8605 -27.7376 -27.7357
    -5.8965  -5.8800  -5.0853  -5.0602   2.3386   2.4520   3.5287   3.5720
     3.7678   3.8711   4.9047   4.9067   5.5848   5.5860   5.9250   6.1363
     6.6357   6.6794

          k = 0.0000 0.2887-0.1072 (  2452 PWs)   bands (ev):

   -53.7790 -53.7790 -27.8750 -27.8750 -27.8615 -27.8615 -27.7358 -27.7358
    -5.8883  -5.8883  -5.0727  -5.0727   2.3949   2.3949   3.5457   3.5457
     3.8268   3.8268   4.9047   4.9047   5.5856   5.5856   6.0226   6.0226
     6.6667   6.6667

          k = 0.0000 0.3849 0.0000 (  2467 PWs)   bands (ev):

   -53.7713 -53.7707 -27.9652 -27.9646 -27.8451 -27.8418 -27.7594 -27.7590
    -5.4197  -5.4057  -4.8885  -4.8704   2.1307   2.1785   3.1843   3.2414
     3.4138   3.4997   4.5394   4.5414   5.6635   5.8101   5.9866   5.9945
     6.3777   6.4289

          k = 0.0000 0.3849-0.1072 (  2464 PWs)   bands (ev):

   -53.7709 -53.7709 -27.9656 -27.9656 -27.8432 -27.8432 -27.7581 -27.7581
    -5.4129  -5.4129  -4.8795  -4.8795   2.1552   2.1552   3.2061   3.2061
     3.4622   3.4622   4.5427   4.5427   5.7328   5.7328   5.9897   5.9897
     6.4104   6.4104

          k = 0.0000 0.4811 0.0000 (  2469 PWs)   bands (ev):

   -53.7648 -53.7646 -28.0297 -28.0289 -27.8318 -27.8302 -27.7743 -27.7736
    -5.0226  -5.0131  -4.7297  -4.7188   1.7643   1.7943   2.7508   2.7837
     3.3370   3.4181   4.3046   4.3087   5.5127   5.5894   6.2684   6.2786
     6.5380   6.5840

          k = 0.0000 0.4811-0.1072 (  2472 PWs)   bands (ev):

   -53.7647 -53.7647 -28.0297 -28.0297 -27.8297 -27.8297 -27.7752 -27.7752
    -5.0181  -5.0181  -4.7240  -4.7240   1.7786   1.7786   2.7664   2.7664
     3.3780   3.3780   4.3058   4.3058   5.5506   5.5506   6.2733   6.2733
     6.5611   6.5611

          k = 0.0000-0.5774 0.0000 (  2476 PWs)   bands (ev):

   -53.7633 -53.7619 -28.0545 -28.0508 -27.8275 -27.8255 -27.7810 -27.7795
    -4.8634  -4.8564  -4.6674  -4.6603   1.6057   1.6319   2.5896   2.6170
     3.2707   3.3477   4.2208   4.2279   5.4851   5.5001   6.3644   6.3770
     6.7148   6.7213

          k = 0.0000-0.5774-0.1072 (  2476 PWs)   bands (ev):

   -53.7625 -53.7625 -28.0541 -28.0541 -27.8249 -27.8249 -27.7799 -27.7799
    -4.8603  -4.8603  -4.6641  -4.6641   1.6177   1.6177   2.6016   2.6016
     3.3107   3.3107   4.2252   4.2252   5.4913   5.4913   6.3707   6.3707
     6.7218   6.7218

          k = 0.0833 0.1443 0.0000 (  2453 PWs)   bands (ev):

   -53.7903 -53.7889 -27.8845 -27.8800 -27.7646 -27.7633 -27.7109 -27.7094
    -6.4148  -6.3961  -5.3028  -5.2718   2.0103   2.1751   4.1677   4.1682
     4.5836   4.7945   5.0711   5.0762   5.3340   5.3447   6.2567   6.5189
     7.0729   7.2947

          k = 0.0833 0.1443-0.1072 (  2450 PWs)   bands (ev):

   -53.7894 -53.7894 -27.8820 -27.8820 -27.7638 -27.7638 -27.7099 -27.7099
    -6.4055  -6.4055  -5.2872  -5.2872   2.0901   2.0901   4.1695   4.1695
     4.6931   4.6931   5.0725   5.0725   5.3407   5.3407   6.3604   6.3604
     7.2107   7.2107

          k = 0.0833 0.2406 0.0000 (  2462 PWs)   bands (ev):

   -53.7829 -53.7821 -27.8692 -27.8667 -27.8397 -27.8385 -27.7336 -27.7321
    -6.0577  -6.0403  -5.1520  -5.1251   2.3090   2.4493   3.6797   3.6952
     4.0826   4.2113   4.7864   4.8121   5.3723   5.3776   6.2436   6.4474
     6.7964   6.8705

          k = 0.0833 0.2406-0.1072 (  2448 PWs)   bands (ev):

   -53.7820 -53.7820 -27.8668 -27.8668 -27.8378 -27.8378 -27.7325 -27.7325
    -6.0490  -6.0490  -5.1383  -5.1383   2.3774   2.3774   3.6861   3.6861
     4.1560   4.1560   4.8006   4.8006   5.3772   5.3772   6.3322   6.3322
     6.8460   6.8460

          k = 0.0833 0.3368 0.0000 (  2446 PWs)   bands (ev):

   -53.7738 -53.7730 -27.9251 -27.9232 -27.8496 -27.8485 -27.7577 -27.7564
    -5.6031  -5.5879  -4.9614  -4.9402   2.3281   2.3982   3.4633   3.4706
     3.5313   3.5341   4.4193   4.4673   5.6118   5.6164   5.9879   6.1207
     6.5256   6.5454

          k = 0.0833 0.3368-0.1072 (  2458 PWs)   bands (ev):

   -53.7738 -53.7738 -27.9247 -27.9247 -27.8498 -27.8498 -27.7580 -27.7580
    -5.5956  -5.5956  -4.9509  -4.9509   2.3621   2.3621   3.4624   3.4624
     3.5357   3.5357   4.4414   4.4414   5.6130   5.6130   6.0498   6.0498
     6.5360   6.5360

          k = 0.0833 0.4330 0.0000 (  2465 PWs)   bands (ev):

   -53.7668 -53.7663 -27.9989 -27.9977 -27.8349 -27.8337 -27.7809 -27.7802
    -5.1584  -5.1468  -4.7785  -4.7644   2.0012   2.0365   2.8978   2.9275
     3.4355   3.5164   4.2565   4.2912   5.6920   5.7238   5.7370   5.7708
     6.6105   6.6317

          k = 0.0833 0.4330-0.1072 (  2460 PWs)   bands (ev):

   -53.7664 -53.7664 -27.9981 -27.9981 -27.8341 -27.8341 -27.7799 -27.7799
    -5.1526  -5.1526  -4.7713  -4.7713   2.0193   2.0193   2.9113   2.9113
     3.4773   3.4773   4.2748   4.2748   5.7117   5.7117   5.7488   5.7488
     6.6247   6.6247

          k = 0.0833 0.5292 0.0000 (  2470 PWs)   bands (ev):

   -53.7625 -53.7622 -28.0400 -28.0393 -27.8266 -27.8255 -27.7937 -27.7926
    -4.8706  -4.8631  -4.6626  -4.6551   1.7435   1.7708   2.5620   2.5797
     3.3292   3.4039   4.2051   4.2241   5.5148   5.5520   5.8461   5.8586
     6.8448   6.8617

          k = 0.0833 0.5292-0.1072 (  2462 PWs)   bands (ev):

   -53.7620 -53.7620 -28.0401 -28.0401 -27.8244 -27.8244 -27.7928 -27.7928
    -4.8670  -4.8670  -4.6588  -4.6588   1.7567   1.7567   2.5706   2.5706
     3.3670   3.3670   4.2182   4.2182   5.5326   5.5326   5.8529   5.8529
     6.8546   6.8546

          k = 0.1667 0.2887 0.0000 (  2441 PWs)   bands (ev):

   -53.7743 -53.7743 -27.9040 -27.9022 -27.8517 -27.8507 -27.7631 -27.7621
    -5.6683  -5.6529  -4.9863  -4.9643   2.4238   2.5093   3.5109   3.5609
     3.6967   3.7462   4.1591   4.2625   5.3980   5.3981   6.2451   6.3631
     6.5954   6.6033

          k = 0.1667 0.2887-0.1072 (  2466 PWs)   bands (ev):

   -53.7752 -53.7752 -27.9051 -27.9051 -27.8527 -27.8527 -27.7636 -27.7636
    -5.6611  -5.6611  -4.9757  -4.9757   2.4641   2.4641   3.5272   3.5272
     3.7278   3.7278   4.2089   4.2089   5.3963   5.3963   6.2996   6.2996
     6.5943   6.5943

          k = 0.1667 0.3849 0.0000 (  2455 PWs)   bands (ev):

   -53.7677 -53.7670 -27.9659 -27.9651 -27.8378 -27.8368 -27.7979 -27.7959
    -5.2372  -5.2246  -4.8030  -4.7871   2.2601   2.3014   3.0257   3.0423
     3.5934   3.6606   4.0514   4.1454   5.1272   5.1363   5.9825   6.0326
     6.6333   6.6363

          k = 0.1667 0.3849-0.1072 (  2446 PWs)   bands (ev):

   -53.7670 -53.7670 -27.9649 -27.9649 -27.8364 -27.8364 -27.7968 -27.7968
    -5.2310  -5.2310  -4.7950  -4.7950   2.2813   2.2813   3.0339   3.0339
     3.6236   3.6236   4.1048   4.1048   5.1326   5.1326   6.0059   6.0059
     6.6373   6.6373

          k = 0.1667 0.4811 0.0000 (  2451 PWs)   bands (ev):

   -53.7619 -53.7615 -28.0084 -28.0081 -27.8258 -27.8249 -27.8242 -27.8228
    -4.8848  -4.8765  -4.6532  -4.6442   2.0690   2.0958   2.5092   2.5157
     3.5077   3.5710   4.1434   4.2105   4.9908   5.0122   5.6325   5.6645
     6.8683   6.8830

          k = 0.1667 0.4811-0.1072 (  2444 PWs)   bands (ev):

   -53.7614 -53.7614 -28.0074 -28.0074 -27.8250 -27.8250 -27.8233 -27.8233
    -4.8805  -4.8805  -4.6483  -4.6483   2.0825   2.0825   2.5127   2.5127
     3.5385   3.5385   4.1788   4.1788   5.0018   5.0018   5.6486   5.6486
     6.8784   6.8784

          k = 0.1667 0.5774 0.0000 (  2448 PWs)   bands (ev):

   -53.7597 -53.7595 -28.0238 -28.0238 -27.8331 -27.8323 -27.8210 -27.8208
    -4.7455  -4.7399  -4.5936  -4.5887   1.9973   2.0211   2.3229   2.3246
     3.3958   3.4607   4.2214   4.2706   4.9919   5.0108   5.4559   5.4999
     7.0375   7.0614

          k = 0.1667 0.5774-0.1072 (  2466 PWs)   bands (ev):

   -53.7602 -53.7602 -28.0241 -28.0241 -27.8343 -27.8343 -27.8222 -27.8222
    -4.7429  -4.7429  -4.5915  -4.5915   2.0087   2.0087   2.3210   2.3210
     3.4266   3.4266   4.2444   4.2444   5.0013   5.0013   5.4761   5.4761
     7.0476   7.0476

          k = 0.2500 0.4330 0.0000 (  2447 PWs)   bands (ev):

   -53.7616 -53.7615 -27.9871 -27.9864 -27.8449 -27.8441 -27.8260 -27.8251
    -4.8916  -4.8830  -4.6485  -4.6382   2.2665   2.2942   2.4791   2.4910
     3.7370   3.7617   4.1033   4.1932   4.4499   4.4729   5.7172   5.7260
     6.8541   6.8689

          k = 0.2500 0.4330-0.1072 (  2432 PWs)   bands (ev):

   -53.7610 -53.7610 -27.9864 -27.9864 -27.8437 -27.8437 -27.8239 -27.8239
    -4.8874  -4.8874  -4.6431  -4.6431   2.2804   2.2804   2.4876   2.4876
     3.7458   3.7458   4.1537   4.1537   4.4623   4.4623   5.7216   5.7216
     6.8627   6.8627

          k = 0.2500 0.5292 0.0000 (  2442 PWs)   bands (ev):

   -53.7584 -53.7578 -27.9908 -27.9900 -27.8808 -27.8796 -27.8194 -27.8179
    -4.6772  -4.6726  -4.5490  -4.5448   2.1410   2.1535   2.3950   2.4148
     3.5385   3.5750   4.1363   4.1661   4.3061   4.3682   5.3784   5.4173
     7.1593   7.1777

          k = 0.2500 0.5292-0.1072 (  2448 PWs)   bands (ev):

   -53.7584 -53.7584 -27.9914 -27.9914 -27.8801 -27.8801 -27.8191 -27.8191
    -4.6751  -4.6751  -4.5470  -4.5470   2.1465   2.1465   2.4049   2.4049
     3.5558   3.5558   4.1474   4.1474   4.3422   4.3422   5.3959   5.3959
     7.1680   7.1680

          k = 0.3333 0.5774 0.0000 (  2457 PWs)   bands (ev):

   -53.7575 -53.7575 -27.9641 -27.9641 -27.9235 -27.9232 -27.8173 -27.8173
    -4.5986  -4.5986  -4.5070  -4.5070   1.9946   2.0102   2.7997   2.7997
     3.2972   3.3206   3.8045   3.8045   4.4882   4.4882   5.2149   5.2149
     7.3437   7.3656

          k = 0.3333 0.5774-0.1072 (  2442 PWs)   bands (ev):

   -53.7570 -53.7570 -27.9634 -27.9634 -27.9226 -27.9226 -27.8157 -27.8157
    -4.5985  -4.5985  -4.5068  -4.5068   2.0040   2.0040   2.8011   2.8011
     3.3088   3.3088   3.8029   3.8029   4.4934   4.4934   5.2133   5.2133
     7.3569   7.3569

     highest occupied level (ev):     7.6086

!    total energy              =    -993.27348482 Ry

     total all-electron energy =    -19389.933907 Ry
     estimated scf accuracy    <          9.6E-09 Ry

     The total energy is the sum of the following terms:
     one-electron contribution =    -305.48127452 Ry
     hartree contribution      =     173.44855809 Ry
     xc contribution           =     -59.32971702 Ry
     ewald contribution        =    -162.72209945 Ry
     one-center paw contrib.   =    -639.18895192 Ry

     convergence has been achieved in  28 iterations

     Forces acting on atoms (cartesian axes, Ry/au):

     atom    1 type  1   force =     0.00000000   -0.00000000    0.00000000
     atom    2 type  1   force =     0.00000000    0.00000000    0.00000000
     atom    3 type  2   force =     0.00000000   -0.00000000   -0.00042129
     atom    4 type  2   force =     0.00000000    0.00000000    0.00042129
     atom    5 type  2   force =     0.00000000    0.00000000   -0.00042129
     atom    6 type  2   force =     0.00000000   -0.00000000    0.00042129

     Total force =     0.000843     Total SCF correction =     0.000208
     SCF correction compared to forces is large: reduce conv_thr to get better values


     Computing stress (Cartesian axis) and pressure

          total   stress  (Ry/bohr**3)                   (kbar)     P=      -98.68
  -0.00068244  -0.00000000   0.00000000         -100.39       -0.00        0.00
  -0.00000000  -0.00068244   0.00000000           -0.00     -100.39        0.00
   0.00000000   0.00000000  -0.00064764            0.00        0.00      -95.27


     BFGS Geometry Optimization
     Energy error            =      0.0E+00 Ry
     Gradient error          =      4.2E-04 Ry/Bohr
     Cell gradient error     =      1.0E+02 kbar

     number of scf cycles    =   1
     number of bfgs steps    =   0

     enthalpy           new  =    -993.2734848228 Ry

     new trust radius        =       0.1015122261 bohr
ibrav =      4
 celldm(1) =      5.92596582
 celldm(3) =      4.66793028
Input lattice vectors:
     0.98293901    -0.00000000     0.00000000
    -0.49146951     0.85125016     0.00000000
     0.00000000     0.00000000     4.58829079
New lattice vectors in INITIAL alat:
     0.98293901     0.00000000     0.00000000
    -0.49146951     0.85125016     0.00000000
     0.00000000     0.00000000     4.58829079
New lattice vectors in NEW alat (for information only):
     1.00000000     0.00000000     0.00000000
    -0.50000000     0.86602540     0.00000000
     0.00000000     0.00000000     4.66793028
Discrepancy in bohr =     0.000000    0.000000    0.000000
     new conv_thr            =       0.0000000100 Ry

     new unit-cell volume =    841.26422 a.u.^3 (   124.66250 Ang^3 )
     density =      4.26489 g/cm^3

CELL_PARAMETERS (alat=  6.02882349)
   0.982939015   0.000000000   0.000000000
  -0.491469507   0.851250157   0.000000000
   0.000000000   0.000000000   4.588290791

ATOMIC_POSITIONS (crystal)
Mo            0.3333333300        0.6666666700        0.2500000000
Mo            0.6666666700        0.3333333300        0.7500000000
S             0.3333333300        0.6666666700        0.8551590165
S             0.6666666700        0.3333333300        0.1448409835
S             0.6666666600        0.3333333300        0.3551590165
S             0.3333333400        0.6666666700        0.6448409835



     Writing config-only to output data dir ./out/MoS2.save/
     NEW-OLD atomic charge density approx. for the potential

     Check: negative core charge=   -0.000012
     extrapolated charge   49.29354, renormalised to   52.00000

     total cpu time spent up to now is       18.1 secs

     per-process dynamical memory:    50.9 Mb

     Self-consistent Calculation

     iteration #  1     ecut=    30.00 Ry     beta= 0.70
     Davidson diagonalization with overlap
     c_bands:  2 eigenvalues not converged
     c_bands:  2 eigenvalues not converged
     c_bands:  2 eigenvalues not converged
     c_bands:  2 eigenvalues not converged
     c_bands:  2 eigenvalues not converged
     ethr =  1.00E-06,  avg # of iterations = 26.0

     total cpu time spent up to now is       21.0 secs

     total energy              =    -978.50066996 Ry
     estimated scf accuracy    <      14.59047619 Ry

     iteration #  2     ecut=    30.00 Ry     beta= 0.70
     Davidson diagonalization with overlap
     ethr =  1.00E-02,  avg # of iterations =  7.4

     total cpu time spent up to now is       22.1 secs

     total energy              =    -988.49973956 Ry
     estimated scf accuracy    <     116.28272194 Ry

     iteration #  3     ecut=    30.00 Ry     beta= 0.70
     Davidson diagonalization with overlap
     ethr =  1.00E-02,  avg # of iterations =  7.5

     total cpu time spent up to now is       23.0 secs

     total energy              =    -993.85670719 Ry
     estimated scf accuracy    <      16.58221601 Ry

     iteration #  4     ecut=    30.00 Ry     beta= 0.70
     Davidson diagonalization with overlap
     ethr =  1.00E-02,  avg # of iterations =  2.1

     total cpu time spent up to now is       23.5 secs

     total energy              =    -992.63551555 Ry
     estimated scf accuracy    <       9.24821528 Ry

     iteration #  5     ecut=    30.00 Ry     beta= 0.70
     Davidson diagonalization with overlap
     ethr =  1.00E-02,  avg # of iterations =  3.1

     total cpu time spent up to now is       24.0 secs

     total energy              =    -992.84704870 Ry
     estimated scf accuracy    <       3.02133873 Ry

     iteration #  6     ecut=    30.00 Ry     beta= 0.70
     Davidson diagonalization with overlap
     ethr =  5.81E-03,  avg # of iterations =  3.1

     total cpu time spent up to now is       24.5 secs

     total energy              =    -993.02799727 Ry
     estimated scf accuracy    <       1.32053247 Ry

     iteration #  7     ecut=    30.00 Ry     beta= 0.70
     Davidson diagonalization with overlap
     ethr =  2.54E-03,  avg # of iterations =  2.9

     total cpu time spent up to now is       25.1 secs

     total energy              =    -993.21349334 Ry
     estimated scf accuracy    <       0.65213061 Ry

     iteration #  8     ecut=    30.00 Ry     beta= 0.70
     Davidson diagonalization with overlap
     ethr =  1.25E-03,  avg # of iterations =  1.3

     total cpu time spent up to now is       25.5 secs

     total energy              =    -993.25085453 Ry
     estimated scf accuracy    <       0.64647695 Ry

     iteration #  9     ecut=    30.00 Ry     beta= 0.70
     Davidson diagonalization with overlap
     ethr =  1.24E-03,  avg # of iterations =  1.0

     total cpu time spent up to now is       25.9 secs

     total energy              =    -993.19990703 Ry
     estimated scf accuracy    <       0.63687674 Ry

     iteration # 10     ecut=    30.00 Ry     beta= 0.70
     Davidson diagonalization with overlap
     ethr =  1.22E-03,  avg # of iterations =  1.1

     total cpu time spent up to now is       26.4 secs

     total energy              =    -993.11264916 Ry
     estimated scf accuracy    <       0.39104443 Ry

     iteration # 11     ecut=    30.00 Ry     beta= 0.70
     Davidson diagonalization with overlap
     ethr =  7.52E-04,  avg # of iterations =  5.2

     total cpu time spent up to now is       27.1 secs

     total energy              =    -993.28215119 Ry
     estimated scf accuracy    <       0.01735159 Ry

     iteration # 12     ecut=    30.00 Ry     beta= 0.70
     Davidson diagonalization with overlap
     ethr =  3.34E-05,  avg # of iterations =  5.1

     total cpu time spent up to now is       27.8 secs

     total energy              =    -993.29354969 Ry
     estimated scf accuracy    <       0.01026165 Ry

     iteration # 13     ecut=    30.00 Ry     beta= 0.70
     Davidson diagonalization with overlap
     ethr =  1.97E-05,  avg # of iterations =  1.4

     total cpu time spent up to now is       28.3 secs

     total energy              =    -993.29239202 Ry
     estimated scf accuracy    <       0.01316291 Ry

     iteration # 14     ecut=    30.00 Ry     beta= 0.70
     Davidson diagonalization with overlap
     ethr =  1.97E-05,  avg # of iterations =  1.0

     total cpu time spent up to now is       28.7 secs

     total energy              =    -993.28544919 Ry
     estimated scf accuracy    <       0.01000555 Ry

     iteration # 15     ecut=    30.00 Ry     beta= 0.70
     Davidson diagonalization with overlap
     ethr =  1.92E-05,  avg # of iterations =  6.0

     total cpu time spent up to now is       29.5 secs

     total energy              =    -993.31306504 Ry
     estimated scf accuracy    <       0.09003441 Ry

     iteration # 16     ecut=    30.00 Ry     beta= 0.70
     Davidson diagonalization with overlap
     ethr =  1.92E-05,  avg # of iterations =  3.3

     total cpu time spent up to now is       30.1 secs

     total energy              =    -993.31895059 Ry
     estimated scf accuracy    <       0.14218982 Ry

     iteration # 17     ecut=    30.00 Ry     beta= 0.70
     Davidson diagonalization with overlap
     ethr =  1.92E-05,  avg # of iterations =  1.7

     total cpu time spent up to now is       30.6 secs

     total energy              =    -993.22588573 Ry
     estimated scf accuracy    <       0.17112549 Ry

     iteration # 18     ecut=    30.00 Ry     beta= 0.70
     Davidson diagonalization with overlap
     ethr =  1.92E-05,  avg # of iterations =  7.9

     total cpu time spent up to now is       31.7 secs

     total energy              =    -993.25093278 Ry
     estimated scf accuracy    <       0.23129092 Ry

     iteration # 19     ecut=    30.00 Ry     beta= 0.70
     Davidson diagonalization with overlap
     ethr =  1.92E-05,  avg # of iterations =  6.8

     total cpu time spent up to now is       32.6 secs

     total energy              =    -993.29065001 Ry
     estimated scf accuracy    <       0.00653527 Ry

     iteration # 20     ecut=    30.00 Ry     beta= 0.70
     Davidson diagonalization with overlap
     ethr =  1.26E-05,  avg # of iterations =  2.0

     total cpu time spent up to now is       33.1 secs

     total energy              =    -993.29049444 Ry
     estimated scf accuracy    <       0.00145326 Ry

     iteration # 21     ecut=    30.00 Ry     beta= 0.70
     Davidson diagonalization with overlap
     ethr =  2.79E-06,  avg # of iterations =  4.9

     total cpu time spent up to now is       33.8 secs

     total energy              =    -993.29111070 Ry
     estimated scf accuracy    <       0.00061342 Ry

     iteration # 22     ecut=    30.00 Ry     beta= 0.70
     Davidson diagonalization with overlap
     ethr =  1.18E-06,  avg # of iterations =  1.3

     total cpu time spent up to now is       34.3 secs

     total energy              =    -993.29101538 Ry
     estimated scf accuracy    <       0.00032149 Ry

     iteration # 23     ecut=    30.00 Ry     beta= 0.70
     Davidson diagonalization with overlap
     ethr =  6.18E-07,  avg # of iterations =  4.2

     total cpu time spent up to now is       34.9 secs

     total energy              =    -993.29110266 Ry
     estimated scf accuracy    <       0.00001848 Ry

     iteration # 24     ecut=    30.00 Ry     beta= 0.70
     Davidson diagonalization with overlap
     ethr =  3.55E-08,  avg # of iterations =  4.1

     total cpu time spent up to now is       35.5 secs

     total energy              =    -993.29110478 Ry
     estimated scf accuracy    <       0.00001779 Ry

     iteration # 25     ecut=    30.00 Ry     beta= 0.70
     Davidson diagonalization with overlap
     ethr =  3.42E-08,  avg # of iterations =  1.2

     total cpu time spent up to now is       36.0 secs

     total energy              =    -993.29110136 Ry
     estimated scf accuracy    <       0.00001264 Ry

     iteration # 26     ecut=    30.00 Ry     beta= 0.70
     Davidson diagonalization with overlap
     ethr =  2.43E-08,  avg # of iterations =  3.4

     total cpu time spent up to now is       36.6 secs

     total energy              =    -993.29110336 Ry
     estimated scf accuracy    <       0.00000017 Ry

     iteration # 27     ecut=    30.00 Ry     beta= 0.70
     Davidson diagonalization with overlap
     ethr =  3.25E-10,  avg # of iterations =  6.2

     total cpu time spent up to now is       37.4 secs

     total energy              =    -993.29110356 Ry
     estimated scf accuracy    <       0.00000007 Ry

     iteration # 28     ecut=    30.00 Ry     beta= 0.70
     Davidson diagonalization with overlap
     ethr =  1.36E-10,  avg # of iterations =  3.8

     total cpu time spent up to now is       38.0 secs

     End of self-consistent calculation

          k = 0.0000 0.0000 0.0000 (  2413 PWs)   bands (ev):

   -52.9850 -52.9840 -27.1492 -27.1460 -26.8891 -26.8891 -26.8887 -26.8887
    -6.3262  -6.3051  -4.9173  -4.8774   2.0827   2.2640   5.2976   5.2976
     5.3008   5.3008   5.8871   6.4894   6.4894   6.4915   6.4915   6.5090
     7.8041   8.2717

          k = 0.0000 0.0000-0.1090 (  2438 PWs)   bands (ev):

   -52.9853 -52.9853 -27.1503 -27.1503 -26.8895 -26.8895 -26.8895 -26.8895
    -6.3159  -6.3159  -4.8975  -4.8975   2.1663   2.1663   5.2976   5.2976
     5.2976   5.2976   6.1649   6.1649   6.4842   6.4842   6.4842   6.4842
     8.0661   8.0661

          k = 0.0000 0.0979 0.0000 (  2449 PWs)   bands (ev):

   -52.9829 -52.9820 -27.1446 -27.1411 -26.9216 -26.9214 -26.8970 -26.8964
    -6.2167  -6.1955  -4.8740  -4.8354   2.2043   2.3838   5.0551   5.0595
     5.4042   5.4110   5.5018   5.8028   6.3074   6.3153   6.7183   7.0061
     7.7834   8.1758

          k = 0.0000 0.0979-0.1090 (  2454 PWs)   bands (ev):

   -52.9826 -52.9826 -27.1443 -27.1443 -26.9209 -26.9209 -26.8965 -26.8965
    -6.2062  -6.2062  -4.8546  -4.8546   2.2877   2.2877   5.0569   5.0569
     5.4110   5.4110   5.6620   5.6620   6.3100   6.3100   6.8205   6.8205
     8.0093   8.0093

          k = 0.0000 0.1958 0.0000 (  2463 PWs)   bands (ev):

   -52.9752 -52.9741 -27.1283 -27.1252 -27.0041 -27.0028 -26.9170 -26.9161
    -5.9041  -5.8835  -4.7503  -4.7158   2.5103   2.6798   4.5169   4.5265
     4.8841   5.0707   5.7247   5.7317   5.8991   5.9066   6.8001   7.1002
     7.6251   7.8339

          k = 0.0000 0.1958-0.1090 (  2464 PWs)   bands (ev):

   -52.9747 -52.9747 -27.1272 -27.1272 -27.0035 -27.0035 -26.9163 -26.9163
    -5.8938  -5.8938  -4.7329  -4.7329   2.5913   2.5913   4.5204   4.5204
     4.9845   4.9845   5.7292   5.7292   5.9015   5.9015   6.9222   6.9222
     7.7541   7.7541

          k = 0.0000 0.2937 0.0000 (  2457 PWs)   bands (ev):

   -52.9637 -52.9631 -27.1133 -27.1123 -27.1057 -27.1044 -26.9426 -26.9413
    -5.4404  -5.4217  -4.5686  -4.5399   2.7357   2.8525   4.0701   4.1221
     4.2374   4.3516   5.4462   5.4476   6.1843   6.1860   6.5736   6.8081
     7.2394   7.2970

          k = 0.0000 0.2937-0.1090 (  2452 PWs)   bands (ev):

   -52.9633 -52.9633 -27.1127 -27.1127 -27.1050 -27.1050 -26.9415 -26.9415
    -5.4311  -5.4311  -4.5542  -4.5542   2.7935   2.7935   4.0879   4.0879
     4.3053   4.3053   5.4460   5.4460   6.1853   6.1853   6.6800   6.6800
     7.2791   7.2791

          k = 0.0000 0.3916 0.0000 (  2467 PWs)   bands (ev):

   -52.9527 -52.9522 -27.2220 -27.2216 -27.0835 -27.0812 -26.9684 -26.9682
    -4.9187  -4.9028  -4.3681  -4.3475   2.5171   2.5687   3.6383   3.7029
     3.9634   4.0557   5.0606   5.0619   6.2948   6.4563   6.6326   6.6408
     6.9630   7.0217

          k = 0.0000 0.3916-0.1090 (  2464 PWs)   bands (ev):

   -52.9523 -52.9523 -27.2222 -27.2222 -27.0822 -27.0822 -26.9676 -26.9676
    -4.9109  -4.9109  -4.3578  -4.3578   2.5433   2.5433   3.6652   3.6652
     4.0141   4.0141   5.0633   5.0633   6.3705   6.3705   6.6360   6.6360
     6.9997   6.9997

          k = 0.0000 0.4895 0.0000 (  2469 PWs)   bands (ev):

   -52.9443 -52.9441 -27.3003 -27.2998 -27.0668 -27.0657 -26.9865 -26.9861
    -4.4813  -4.4704  -4.2060  -4.1939   2.1584   2.1914   3.1975   3.2353
     3.8350   3.9218   4.8122   4.8165   6.1314   6.2158   6.9468   6.9579
     7.1486   7.2025

          k = 0.0000 0.4895-0.1090 (  2472 PWs)   bands (ev):

   -52.9442 -52.9442 -27.3003 -27.3003 -27.0654 -27.0654 -26.9871 -26.9871
    -4.4761  -4.4761  -4.1997  -4.1997   2.1742   2.1742   3.2155   3.2155
     3.8792   3.8792   4.8136   4.8136   6.1727   6.1727   6.9522   6.9522
     7.1762   7.1762

          k = 0.0000-0.5874 0.0000 (  2476 PWs)   bands (ev):

   -52.9419 -52.9408 -27.3296 -27.3272 -27.0610 -27.0597 -26.9940 -26.9930
    -4.3048  -4.2968  -4.1423  -4.1346   2.0024   2.0316   3.0344   3.0647
     3.7406   3.8231   4.7244   4.7313   6.1009   6.1180   7.0536   7.0672
     7.3504   7.3554

          k = 0.0000-0.5874-0.1090 (  2476 PWs)   bands (ev):

   -52.9413 -52.9413 -27.3294 -27.3294 -27.0593 -27.0593 -26.9933 -26.9933
    -4.3012  -4.3012  -4.1386  -4.1386   2.0160   2.0160   3.0479   3.0479
     3.7836   3.7836   4.7286   4.7286   6.1083   6.1083   7.0604   7.0604
     7.3558   7.3558

          k = 0.0848 0.1468 0.0000 (  2453 PWs)   bands (ev):

   -52.9775 -52.9765 -27.1336 -27.1305 -26.9765 -26.9756 -26.9116 -26.9106
    -6.0053  -5.9843  -4.7901  -4.7543   2.4216   2.5960   4.6751   4.6765
     5.0930   5.3209   5.6186   5.6230   5.9027   5.9134   6.9137   7.2084
     7.6935   7.9565

          k = 0.0848 0.1468-0.1090 (  2450 PWs)   bands (ev):

   -52.9769 -52.9769 -27.1319 -27.1319 -26.9760 -26.9760 -26.9109 -26.9109
    -5.9949  -5.9949  -4.7721  -4.7721   2.5060   2.5060   4.6768   4.6768
     5.2115   5.2115   5.6198   5.6198   5.9091   5.9091   7.0262   7.0262
     7.8592   7.8592

          k = 0.0848 0.2447 0.0000 (  2462 PWs)   bands (ev):

   -52.9679 -52.9673 -27.1142 -27.1124 -27.0685 -27.0677 -26.9383 -26.9373
    -5.6161  -5.5965  -4.6364  -4.6056   2.7180   2.8637   4.2029   4.2253
     4.5652   4.7072   5.3206   5.3479   5.9545   5.9592   6.9143   7.1440
     7.4129   7.5064

          k = 0.0848 0.2447-0.1090 (  2448 PWs)   bands (ev):

   -52.9672 -52.9672 -27.1125 -27.1125 -27.0673 -27.0673 -26.9376 -26.9376
    -5.6063  -5.6063  -4.6207  -4.6207   2.7890   2.7890   4.2116   4.2116
     4.6459   4.6459   5.3352   5.3352   5.9588   5.9588   7.0105   7.0105
     7.4768   7.4768

          k = 0.0848 0.3426 0.0000 (  2446 PWs)   bands (ev):

   -52.9563 -52.9557 -27.1729 -27.1716 -27.0904 -27.0897 -26.9679 -26.9670
    -5.1194  -5.1021  -4.4419  -4.4178   2.7156   2.7891   3.9312   3.9990
     4.0249   4.1039   4.9298   4.9814   6.2181   6.2221   6.6477   6.7963
     7.1270   7.1532

          k = 0.0848 0.3426-0.1090 (  2458 PWs)   bands (ev):

   -52.9563 -52.9563 -27.1726 -27.1726 -27.0906 -27.0906 -26.9680 -26.9680
    -5.1110  -5.1110  -4.4299  -4.4299   2.7513   2.7513   3.9513   3.9513
     4.0769   4.0769   4.9544   4.9544   6.2192   6.2192   6.7162   6.7162
     7.1420   7.1420

          k = 0.0848 0.4405 0.0000 (  2465 PWs)   bands (ev):

   -52.9469 -52.9466 -27.2624 -27.2616 -27.0713 -27.0705 -26.9949 -26.9945
    -4.6309  -4.6176  -4.2546  -4.2388   2.3944   2.4330   3.3392   3.3726
     3.9686   4.0552   4.7617   4.8010   6.3307   6.3403   6.3570   6.4175
     7.2360   7.2580

          k = 0.0848 0.4405-0.1090 (  2460 PWs)   bands (ev):

   -52.9466 -52.9466 -27.2619 -27.2619 -27.0708 -27.0708 -26.9942 -26.9942
    -4.6243  -4.6243  -4.2465  -4.2465   2.4140   2.4140   3.3547   3.3547
     4.0129   4.0129   4.7826   4.7826   6.3357   6.3357   6.3856   6.3856
     7.2500   7.2500

          k = 0.0848 0.5384 0.0000 (  2470 PWs)   bands (ev):

   -52.9413 -52.9410 -27.3128 -27.3124 -27.0605 -27.0597 -27.0101 -27.0094
    -4.3125  -4.3040  -4.1356  -4.1273   2.1442   2.1743   2.9920   3.0116
     3.8116   3.8919   4.7138   4.7363   6.1375   6.1787   6.4915   6.5043
     7.4891   7.5080

          k = 0.0848 0.5384-0.1090 (  2462 PWs)   bands (ev):

   -52.9409 -52.9409 -27.3129 -27.3129 -27.0590 -27.0590 -27.0095 -27.0095
    -4.3083  -4.3083  -4.1313  -4.1313   2.1588   2.1588   3.0015   3.0015
     3.8521   3.8521   4.7283   4.7283   6.1571   6.1571   6.4985   6.4985
     7.4997   7.4997

          k = 0.1696 0.2937 0.0000 (  2441 PWs)   bands (ev):

   -52.9573 -52.9573 -27.1473 -27.1462 -27.0932 -27.0926 -26.9750 -26.9743
    -5.1907  -5.1731  -4.4669  -4.4417   2.8155   2.9036   4.0729   4.1331
     4.1672   4.2205   4.6524   4.7635   5.9898   5.9907   6.9295   7.0633
     7.2015   7.2163

          k = 0.1696 0.2937-0.1090 (  2466 PWs)   bands (ev):

   -52.9580 -52.9580 -27.1481 -27.1481 -27.0939 -27.0939 -26.9754 -26.9754
    -5.1823  -5.1823  -4.4546  -4.4546   2.8573   2.8573   4.0884   4.0884
     4.2057   4.2057   4.7076   4.7076   5.9888   5.9888   6.9897   6.9897
     7.2070   7.2070

          k = 0.1696 0.3916 0.0000 (  2455 PWs)   bands (ev):

   -52.9482 -52.9477 -27.2223 -27.2218 -27.0747 -27.0741 -27.0170 -27.0157
    -4.7172  -4.7028  -4.2779  -4.2599   2.6528   2.6976   3.4591   3.4763
     4.1698   4.2438   4.5473   4.6524   5.6952   5.7057   6.6542   6.7103
     7.2489   7.2501

          k = 0.1696 0.3916-0.1090 (  2446 PWs)   bands (ev):

   -52.9477 -52.9477 -27.2216 -27.2216 -27.0738 -27.0738 -27.0163 -27.0163
    -4.7101  -4.7101  -4.2688  -4.2688   2.6756   2.6756   3.4677   3.4677
     4.2014   4.2014   4.6079   4.6079   5.7011   5.7011   6.6804   6.6804
     7.2514   7.2514

          k = 0.1696 0.4895 0.0000 (  2451 PWs)   bands (ev):

   -52.9408 -52.9406 -27.2744 -27.2741 -27.0600 -27.0593 -27.0488 -27.0479
    -4.3276  -4.3180  -4.1224  -4.1122   2.4756   2.5053   2.9120   2.9187
     4.0298   4.0982   4.6585   4.7343   5.5782   5.6018   6.2764   6.3114
     7.4953   7.5119

          k = 0.1696 0.4895-0.1090 (  2444 PWs)   bands (ev):

   -52.9405 -52.9405 -27.2737 -27.2737 -27.0593 -27.0593 -27.0483 -27.0483
    -4.3227  -4.3227  -4.1169  -4.1169   2.4905   2.4905   2.9156   2.9156
     4.0626   4.0626   4.6987   4.6987   5.5904   5.5904   6.2936   6.2936
     7.5059   7.5059

          k = 0.1696 0.5874 0.0000 (  2448 PWs)   bands (ev):

   -52.9381 -52.9379 -27.2932 -27.2932 -27.0601 -27.0596 -27.0543 -27.0541
    -4.1727  -4.1664  -4.0601  -4.0548   2.4130   2.4393   2.7144   2.7160
     3.8809   3.9507   4.7490   4.8048   5.5963   5.6157   6.0826   6.1317
     7.6763   7.7031

          k = 0.1696 0.5874-0.1090 (  2466 PWs)   bands (ev):

   -52.9384 -52.9384 -27.2934 -27.2934 -27.0609 -27.0609 -27.0550 -27.0550
    -4.1697  -4.1697  -4.0576  -4.0576   2.4257   2.4257   2.7129   2.7129
     3.9141   3.9141   4.7761   4.7761   5.6061   5.6061   6.1053   6.1053
     7.6882   7.6882

          k = 0.2543 0.4405 0.0000 (  2447 PWs)   bands (ev):

   -52.9406 -52.9406 -27.2486 -27.2480 -27.0748 -27.0742 -27.0601 -27.0594
    -4.3348  -4.3249  -4.1157  -4.1042   2.6733   2.7041   2.8687   2.8810
     4.3189   4.3437   4.6207   4.7214   4.9767   5.0033   6.3745   6.3848
     7.4715   7.4868

          k = 0.2543 0.4405-0.1090 (  2432 PWs)   bands (ev):

   -52.9402 -52.9402 -27.2481 -27.2481 -27.0739 -27.0739 -27.0587 -27.0587
    -4.3300  -4.3300  -4.1096  -4.1096   2.6886   2.6886   2.8770   2.8770
     4.3263   4.3263   4.6776   4.6776   4.9910   4.9910   6.3792   6.3792
     7.4802   7.4802

          k = 0.2543 0.5384 0.0000 (  2442 PWs)   bands (ev):

   -52.9365 -52.9361 -27.2536 -27.2531 -27.1183 -27.1176 -27.0517 -27.0508
    -4.0962  -4.0910  -4.0100  -4.0052   2.5030   2.5159   2.8248   2.8467
     4.0425   4.0807   4.6976   4.7288   4.8518   4.9219   6.0080   6.0515
     7.7936   7.8156

          k = 0.2543 0.5384-0.1090 (  2448 PWs)   bands (ev):

   -52.9365 -52.9365 -27.2539 -27.2539 -27.1179 -27.1179 -27.0516 -27.0516
    -4.0938  -4.0938  -4.0077  -4.0077   2.5088   2.5088   2.8357   2.8357
     4.0607   4.0607   4.7078   4.7078   4.8937   4.8937   6.0277   6.0277
     7.8043   7.8043

          k = 0.3391 0.5874 0.0000 (  2457 PWs)   bands (ev):

   -52.9352 -52.9352 -27.2217 -27.2217 -27.1691 -27.1690 -27.0489 -27.0489
    -4.0084  -4.0084  -3.9639  -3.9639   2.3409   2.3568   3.2577   3.2577
     3.7599   3.7852   4.3712   4.3712   5.0577   5.0577   5.8335   5.8335
     7.9917   8.0165

          k = 0.3391 0.5874-0.1090 (  2442 PWs)   bands (ev):

   -52.9348 -52.9348 -27.2213 -27.2213 -27.1685 -27.1685 -27.0478 -27.0478
    -4.0083  -4.0083  -3.9637  -3.9637   2.3501   2.3501   3.2589   3.2589
     3.7724   3.7724   4.3690   4.3690   5.0637   5.0637   5.8312   5.8312
     8.0059   8.0059

     highest occupied level (ev):     8.2717

!    total energy              =    -993.29110357 Ry

     total all-electron energy =    -19389.951526 Ry
     estimated scf accuracy    <          5.1E-10 Ry

     The total energy is the sum of the following terms:
     one-electron contribution =    -302.49058131 Ry
     hartree contribution      =     173.29761452 Ry
     xc contribution           =     -59.58056969 Ry
     ewald contribution        =    -165.28856788 Ry
     one-center paw contrib.   =    -639.22899921 Ry

     convergence has been achieved in  28 iterations

     Forces acting on atoms (cartesian axes, Ry/au):

     atom    1 type  1   force =     0.00000000    0.00000000    0.00000000
     atom    2 type  1   force =    -0.00000000    0.00000000    0.00000000
     atom    3 type  2   force =    -0.00000000   -0.00000000    0.03331141
     atom    4 type  2   force =    -0.00000000   -0.00000000   -0.03331141
     atom    5 type  2   force =     0.00000000    0.00000000    0.03331141
     atom    6 type  2   force =    -0.00000000   -0.00000000   -0.03331141

     Total force =     0.066623     Total SCF correction =     0.000053


     Computing stress (Cartesian axis) and pressure

          total   stress  (Ry/bohr**3)                   (kbar)     P=      -17.22
  -0.00013350   0.00000000   0.00000000          -19.64        0.00        0.00
   0.00000000  -0.00013350   0.00000000            0.00      -19.64        0.00
   0.00000000   0.00000000  -0.00008409            0.00        0.00      -12.37

     Energy error            =      1.8E-02 Ry
     Gradient error          =      3.3E-02 Ry/Bohr
     Cell gradient error     =      2.0E+01 kbar

     number of scf cycles    =   2
     number of bfgs steps    =   1

     enthalpy           old  =    -993.2734848228 Ry
     enthalpy           new  =    -993.2911035743 Ry

     CASE: enthalpy          _new < enthalpy          _old

     new trust radius        =       0.0439793883 bohr
ibrav =      4
 celldm(1) =      5.88103834
 celldm(3) =      4.67570353
Input lattice vectors:
     0.97548690     0.00000000     0.00000000
    -0.48774345     0.84479644     0.00000000
     0.00000000     0.00000000     4.56108754
New lattice vectors in INITIAL alat:
     0.97548690     0.00000000     0.00000000
    -0.48774345     0.84479644     0.00000000
     0.00000000     0.00000000     4.56108754
New lattice vectors in NEW alat (for information only):
     1.00000000     0.00000000     0.00000000
    -0.50000000     0.86602540     0.00000000
     0.00000000     0.00000000     4.67570353
Discrepancy in bohr =     0.000000    0.000000    0.000000
     new conv_thr            =       0.0000000100 Ry

     new unit-cell volume =    823.64417 a.u.^3 (   122.05147 Ang^3 )
     density =      4.35612 g/cm^3

CELL_PARAMETERS (alat=  6.02882349)
   0.975486900   0.000000000   0.000000000
  -0.487743450   0.844796436   0.000000000
   0.000000000   0.000000000   4.561087542

ATOMIC_POSITIONS (crystal)
Mo            0.3333333300        0.6666666700        0.2500000000
Mo            0.6666666700        0.3333333300        0.7500000000
S             0.3333333300        0.6666666700        0.8565559987
S             0.6666666700        0.3333333300        0.1434440013
S             0.6666666600        0.3333333300        0.3565559987
S             0.3333333400        0.6666666700        0.6434440013



     Writing config-only to output data dir ./out/MoS2.save/
     NEW-OLD atomic charge density approx. for the potential

     Check: negative core charge=   -0.000011
     extrapolated charge   50.88762, renormalised to   52.00000

     total cpu time spent up to now is       39.1 secs

     per-process dynamical memory:    50.9 Mb

     Self-consistent Calculation

     iteration #  1     ecut=    30.00 Ry     beta= 0.70
     Davidson diagonalization with overlap
     c_bands:  2 eigenvalues not converged
     c_bands:  2 eigenvalues not converged
     c_bands:  2 eigenvalues not converged
     c_bands:  4 eigenvalues not converged
     c_bands:  4 eigenvalues not converged
     ethr =  1.00E-06,  avg # of iterations = 18.1

     total cpu time spent up to now is       41.3 secs

     total energy              =    -991.14137584 Ry
     estimated scf accuracy    <       2.10416709 Ry

     iteration #  2     ecut=    30.00 Ry     beta= 0.70
     Davidson diagonalization with overlap
     ethr =  4.05E-03,  avg # of iterations =  7.9

     total cpu time spent up to now is       42.3 secs

     total energy              =    -990.88731296 Ry
     estimated scf accuracy    <      32.72886305 Ry

     iteration #  3     ecut=    30.00 Ry     beta= 0.70
     Davidson diagonalization with overlap
     ethr =  4.05E-03,  avg # of iterations =  6.6

     total cpu time spent up to now is       43.1 secs

     total energy              =    -993.29172727 Ry
     estimated scf accuracy    <       2.62460968 Ry

     iteration #  4     ecut=    30.00 Ry     beta= 0.70
     Davidson diagonalization with overlap
     ethr =  4.05E-03,  avg # of iterations =  1.2

     total cpu time spent up to now is       43.5 secs

     total energy              =    -993.17355042 Ry
     estimated scf accuracy    <       1.57395761 Ry

     iteration #  5     ecut=    30.00 Ry     beta= 0.70
     Davidson diagonalization with overlap
     ethr =  3.03E-03,  avg # of iterations =  1.8

     total cpu time spent up to now is       44.0 secs

     total energy              =    -993.16453928 Ry
     estimated scf accuracy    <       0.79689547 Ry

     iteration #  6     ecut=    30.00 Ry     beta= 0.70
     Davidson diagonalization with overlap
     ethr =  1.53E-03,  avg # of iterations =  2.9

     total cpu time spent up to now is       44.5 secs

     total energy              =    -993.26835312 Ry
     estimated scf accuracy    <       0.20184945 Ry

     iteration #  7     ecut=    30.00 Ry     beta= 0.70
     Davidson diagonalization with overlap
     ethr =  3.88E-04,  avg # of iterations =  3.7

     total cpu time spent up to now is       45.1 secs

     total energy              =    -993.29973515 Ry
     estimated scf accuracy    <       0.08028496 Ry

     iteration #  8     ecut=    30.00 Ry     beta= 0.70
     Davidson diagonalization with overlap
     ethr =  1.54E-04,  avg # of iterations =  1.8

     total cpu time spent up to now is       45.6 secs

     total energy              =    -993.30087527 Ry
     estimated scf accuracy    <       0.07239281 Ry

     iteration #  9     ecut=    30.00 Ry     beta= 0.70
     Davidson diagonalization with overlap
     ethr =  1.39E-04,  avg # of iterations =  1.1

     total cpu time spent up to now is       46.0 secs

     total energy              =    -993.29600548 Ry
     estimated scf accuracy    <       0.06072090 Ry

     iteration # 10     ecut=    30.00 Ry     beta= 0.70
     Davidson diagonalization with overlap
     ethr =  1.17E-04,  avg # of iterations =  1.5

     total cpu time spent up to now is       46.5 secs

     total energy              =    -993.29308074 Ry
     estimated scf accuracy    <       0.03446202 Ry

     iteration # 11     ecut=    30.00 Ry     beta= 0.70
     Davidson diagonalization with overlap
     ethr =  6.63E-05,  avg # of iterations =  2.9

     total cpu time spent up to now is       47.0 secs

     total energy              =    -993.29701832 Ry
     estimated scf accuracy    <       0.00843610 Ry

     iteration # 12     ecut=    30.00 Ry     beta= 0.70
     Davidson diagonalization with overlap
     ethr =  1.62E-05,  avg # of iterations =  3.1

     total cpu time spent up to now is       47.5 secs

     total energy              =    -993.29731584 Ry
     estimated scf accuracy    <       0.00776166 Ry

     iteration # 13     ecut=    30.00 Ry     beta= 0.70
     Davidson diagonalization with overlap
     ethr =  1.49E-05,  avg # of iterations =  1.1

     total cpu time spent up to now is       47.9 secs

     total energy              =    -993.29623761 Ry
     estimated scf accuracy    <       0.00595036 Ry

     iteration # 14     ecut=    30.00 Ry     beta= 0.70
     Davidson diagonalization with overlap
     ethr =  1.14E-05,  avg # of iterations =  3.8

     total cpu time spent up to now is       48.5 secs

     total energy              =    -993.29660238 Ry
     estimated scf accuracy    <       0.00054371 Ry

     iteration # 15     ecut=    30.00 Ry     beta= 0.70
     Davidson diagonalization with overlap
     ethr =  1.05E-06,  avg # of iterations =  6.4

     total cpu time spent up to now is       49.4 secs

     total energy              =    -993.29664479 Ry
     estimated scf accuracy    <       0.00314171 Ry

     iteration # 16     ecut=    30.00 Ry     beta= 0.70
     Davidson diagonalization with overlap
     ethr =  1.05E-06,  avg # of iterations =  5.0

     total cpu time spent up to now is       50.2 secs

     total energy              =    -993.29708761 Ry
     estimated scf accuracy    <       0.00000654 Ry

     iteration # 17     ecut=    30.00 Ry     beta= 0.70
     Davidson diagonalization with overlap
     ethr =  1.26E-08,  avg # of iterations =  7.9

     total cpu time spent up to now is       51.2 secs

     total energy              =    -993.29709998 Ry
     estimated scf accuracy    <       0.00017063 Ry

     iteration # 18     ecut=    30.00 Ry     beta= 0.70
     Davidson diagonalization with overlap
     ethr =  1.26E-08,  avg # of iterations =  4.2

     total cpu time spent up to now is       51.9 secs

     total energy              =    -993.29709614 Ry
     estimated scf accuracy    <       0.00006625 Ry

     iteration # 19     ecut=    30.00 Ry     beta= 0.70
     Davidson diagonalization with overlap
     ethr =  1.26E-08,  avg # of iterations =  4.4

     total cpu time spent up to now is       52.6 secs

     total energy              =    -993.29709490 Ry
     estimated scf accuracy    <       0.00002317 Ry

     iteration # 20     ecut=    30.00 Ry     beta= 0.70
     Davidson diagonalization with overlap
     ethr =  1.26E-08,  avg # of iterations =  3.8

     total cpu time spent up to now is       53.2 secs

     total energy              =    -993.29709419 Ry
     estimated scf accuracy    <       0.00000617 Ry

     iteration # 21     ecut=    30.00 Ry     beta= 0.70
     Davidson diagonalization with overlap
     ethr =  1.19E-08,  avg # of iterations =  4.1

     total cpu time spent up to now is       53.9 secs

     total energy              =    -993.29709582 Ry
     estimated scf accuracy    <       0.00000021 Ry

     iteration # 22     ecut=    30.00 Ry     beta= 0.70
     Davidson diagonalization with overlap
     ethr =  4.13E-10,  avg # of iterations =  4.9

     total cpu time spent up to now is       54.6 secs

     total energy              =    -993.29709586 Ry
     estimated scf accuracy    <       0.00000041 Ry

     iteration # 23     ecut=    30.00 Ry     beta= 0.70
     Davidson diagonalization with overlap
     ethr =  4.13E-10,  avg # of iterations =  2.3

     total cpu time spent up to now is       55.0 secs

     total energy              =    -993.29709581 Ry
     estimated scf accuracy    <       0.00000021 Ry

     iteration # 24     ecut=    30.00 Ry     beta= 0.70
     Davidson diagonalization with overlap
     ethr =  3.95E-10,  avg # of iterations =  3.6

     total cpu time spent up to now is       55.7 secs

     End of self-consistent calculation

          k = 0.0000 0.0000 0.0000 (  2413 PWs)   bands (ev):

   -52.6435 -52.6426 -26.8278 -26.8251 -26.5357 -26.5357 -26.5354 -26.5354
    -6.0876  -6.0629  -4.7044  -4.6586   2.3165   2.5147   5.6607   5.6607
     5.6639   5.6639   6.0651   6.7316   6.8598   6.8598   6.8622   6.8622
     7.9796   8.4800

          k = 0.0000 0.0000-0.1096 (  2438 PWs)   bands (ev):

   -52.6438 -52.6438 -26.8287 -26.8287 -26.5361 -26.5361 -26.5361 -26.5361
    -6.0756  -6.0756  -4.6815  -4.6815   2.4081   2.4081   5.6607   5.6607
     5.6607   5.6607   6.3606   6.3606   6.8551   6.8551   6.8551   6.8551
     8.2636   8.2636

          k = 0.0000 0.0986 0.0000 (  2449 PWs)   bands (ev):

   -52.6410 -52.6402 -26.8226 -26.8196 -26.5701 -26.5699 -26.5439 -26.5434
    -5.9747  -5.9500  -4.6581  -4.6139   2.4425   2.6391   5.4106   5.4150
     5.7264   5.7710   5.7777   6.0888   6.6730   6.6807   7.0332   7.3035
     7.9691   8.3936

          k = 0.0000 0.0986-0.1096 (  2454 PWs)   bands (ev):

   -52.6407 -52.6407 -26.8223 -26.8223 -26.5695 -26.5695 -26.5435 -26.5435
    -5.9625  -5.9625  -4.6359  -4.6359   2.5340   2.5340   5.4123   5.4123
     5.7775   5.7775   5.9156   5.9156   6.6756   6.6756   7.1228   7.1228
     8.2177   8.2177

          k = 0.0000 0.1973 0.0000 (  2463 PWs)   bands (ev):

   -52.6323 -52.6313 -26.8050 -26.8023 -26.6586 -26.6575 -26.5650 -26.5643
    -5.6523  -5.6283  -4.5261  -4.4865   2.7607   2.9470   4.8527   4.8634
     5.1264   5.3450   6.1000   6.1070   6.2535   6.2607   7.0714   7.3782
     7.8395   8.0722

          k = 0.0000 0.1973-0.1096 (  2464 PWs)   bands (ev):

   -52.6319 -52.6319 -26.8040 -26.8040 -26.6581 -26.6581 -26.5645 -26.5645
    -5.6404  -5.6404  -4.5061  -4.5061   2.8493   2.8493   4.8562   4.8562
     5.2441   5.2441   6.1044   6.1044   6.2559   6.2559   7.1918   7.1918
     7.9855   7.9855

          k = 0.0000 0.2959 0.0000 (  2457 PWs)   bands (ev):

   -52.6196 -52.6192 -26.7805 -26.7795 -26.7761 -26.7753 -26.5924 -26.5913
    -5.1727  -5.1506  -4.3317  -4.2988   3.0013   3.1308   4.3782   4.4355
     4.4779   4.6088   5.7893   5.7906   6.5679   6.5704   6.8141   7.0609
     7.4795   7.5478

          k = 0.0000 0.2959-0.1096 (  2452 PWs)   bands (ev):

   -52.6193 -52.6193 -26.7801 -26.7801 -26.7755 -26.7755 -26.5915 -26.5915
    -5.1618  -5.1618  -4.3151  -4.3151   3.0648   3.0648   4.3932   4.3932
     4.5603   4.5603   5.7891   5.7891   6.5694   6.5694   6.9246   6.9246
     7.5261   7.5261

          k = 0.0000 0.3946 0.0000 (  2467 PWs)   bands (ev):

   -52.6074 -52.6070 -26.8927 -26.8923 -26.7564 -26.7545 -26.6199 -26.6197
    -4.6297  -4.6109  -4.1161  -4.0925   2.7799   2.8369   3.8667   3.9400
     4.2460   4.3482   5.3952   5.3963   6.5172   6.6895   7.0188   7.0281
     7.2186   7.2854

          k = 0.0000 0.3946-0.1096 (  2464 PWs)   bands (ev):

   -52.6071 -52.6071 -26.8928 -26.8928 -26.7554 -26.7554 -26.6192 -26.6192
    -4.6205  -4.6205  -4.1042  -4.1042   2.8086   2.8086   3.8981   3.8981
     4.3017   4.3017   5.3976   5.3976   6.5975   6.5975   7.0227   7.0227
     7.2598   7.2598

          k = 0.0000 0.4932 0.0000 (  2469 PWs)   bands (ev):

   -52.5982 -52.5980 -26.9766 -26.9762 -26.7384 -26.7375 -26.6394 -26.6390
    -4.1706  -4.1576  -3.9410  -3.9270   2.3989   2.4355   3.4125   3.4551
     4.1000   4.1954   5.1408   5.1457   6.3463   6.4372   7.3263   7.3393
     7.4201   7.4819

          k = 0.0000 0.4932-0.1096 (  2472 PWs)   bands (ev):

   -52.5981 -52.5981 -26.9766 -26.9766 -26.7372 -26.7372 -26.6398 -26.6398
    -4.1644  -4.1644  -3.9336  -3.9336   2.4165   2.4165   3.4327   3.4327
     4.1486   4.1486   5.1427   5.1427   6.3905   6.3905   7.3326   7.3326
     7.4520   7.4520

          k = 0.0000-0.5919 0.0000 (  2476 PWs)   bands (ev):

   -52.5953 -52.5944 -27.0078 -27.0058 -26.7321 -26.7310 -26.6471 -26.6464
    -3.9837  -3.9744  -3.8717  -3.8631   2.2304   2.2632   3.2435   3.2773
     3.9999   4.0903   5.0513   5.0586   6.3146   6.3346   7.4282   7.4440
     7.6325   7.6338

          k = 0.0000-0.5919-0.1096 (  2476 PWs)   bands (ev):

   -52.5948 -52.5948 -27.0076 -27.0076 -26.7306 -26.7306 -26.6465 -26.6465
    -3.9795  -3.9795  -3.8675  -3.8675   2.2458   2.2458   3.2587   3.2587
     4.0469   4.0469   5.0557   5.0557   6.3235   6.3235   7.4361   7.4361
     7.6357   7.6357

          k = 0.0854 0.1480 0.0000 (  2453 PWs)   bands (ev):

   -52.6350 -52.6340 -26.8106 -26.8080 -26.6290 -26.6282 -26.5595 -26.5587
    -5.7568  -5.7324  -4.5687  -4.5276   2.6683   2.8597   5.0175   5.0192
     5.3305   5.5977   5.9905   5.9948   6.2518   6.2630   7.2063   7.5022
     7.8992   8.1898

          k = 0.0854 0.1480-0.1096 (  2450 PWs)   bands (ev):

   -52.6344 -52.6344 -26.8091 -26.8091 -26.6285 -26.6285 -26.5589 -26.5589
    -5.7447  -5.7447  -4.5479  -4.5479   2.7604   2.7604   5.0190   5.0190
     5.4697   5.4697   5.9918   5.9918   6.2584   6.2584   7.3131   7.3131
     8.0852   8.0852

          k = 0.0854 0.2466 0.0000 (  2462 PWs)   bands (ev):

   -52.6243 -52.6238 -26.7896 -26.7882 -26.7278 -26.7272 -26.5880 -26.5871
    -5.3547  -5.3316  -4.4044  -4.3689   2.9793   3.1405   4.5229   4.5477
     4.8090   4.9757   5.6428   5.6715   6.3300   6.3348   7.1877   7.4247
     7.6503   7.7583

          k = 0.0854 0.2466-0.1096 (  2448 PWs)   bands (ev):

   -52.6237 -52.6237 -26.7882 -26.7882 -26.7268 -26.7268 -26.5874 -26.5874
    -5.3433  -5.3433  -4.3864  -4.3864   3.0572   3.0572   4.5315   4.5315
     4.9042   4.9042   5.6578   5.6578   6.3342   6.3342   7.2836   7.2836
     7.7251   7.7251

          k = 0.0854 0.3453 0.0000 (  2446 PWs)   bands (ev):

   -52.6115 -52.6110 -26.8399 -26.8388 -26.7642 -26.7636 -26.6198 -26.6191
    -4.8392  -4.8188  -4.1957  -4.1680   2.9854   3.0669   4.1749   4.2546
     4.3198   4.4076   5.2291   5.2861   6.5683   6.5727   6.9025   7.0564
     7.4075   7.4381

          k = 0.0854 0.3453-0.1096 (  2458 PWs)   bands (ev):

   -52.6116 -52.6116 -26.8397 -26.8397 -26.7644 -26.7644 -26.6199 -26.6199
    -4.8292  -4.8292  -4.1818  -4.1818   3.0249   3.0249   4.2031   4.2031
     4.3743   4.3743   5.2566   5.2566   6.5695   6.5695   6.9732   6.9732
     7.4252   7.4252

          k = 0.0854 0.4439 0.0000 (  2465 PWs)   bands (ev):

   -52.6011 -52.6008 -26.9358 -26.9352 -26.7435 -26.7428 -26.6484 -26.6481
    -4.3283  -4.3125  -3.9939  -3.9756   2.6476   2.6900   3.5708   3.6095
     4.2443   4.3403   5.0578   5.1026   6.5667   6.6567   6.6621   6.6839
     7.5541   7.5752

          k = 0.0854 0.4439-0.1096 (  2460 PWs)   bands (ev):

   -52.6008 -52.6008 -26.9354 -26.9354 -26.7431 -26.7431 -26.6479 -26.6479
    -4.3205  -4.3205  -3.9845  -3.9845   2.6690   2.6690   3.5890   3.5890
     4.2933   4.2933   5.0816   5.0816   6.6002   6.6002   6.6831   6.6831
     7.5673   7.5673

          k = 0.0854 0.5425 0.0000 (  2470 PWs)   bands (ev):

   -52.5948 -52.5946 -26.9900 -26.9896 -26.7317 -26.7310 -26.6647 -26.6641
    -3.9923  -3.9823  -3.8649  -3.8554   2.3768   2.4103   3.2127   3.2353
     4.0755   4.1637   5.0156   5.0412   6.3583   6.4036   6.8171   6.8312
     7.8073   7.8275

          k = 0.0854 0.5425-0.1096 (  2462 PWs)   bands (ev):

   -52.5945 -52.5945 -26.9900 -26.9900 -26.7304 -26.7304 -26.6642 -26.6642
    -3.9875  -3.9875  -3.8599  -3.8599   2.3931   2.3931   3.2236   3.2236
     4.1200   4.1200   5.0317   5.0317   6.3798   6.3798   6.8249   6.8249
     7.8184   7.8184

          k = 0.1709 0.2959 0.0000 (  2441 PWs)   bands (ev):

   -52.6128 -52.6128 -26.8125 -26.8115 -26.7673 -26.7668 -26.6277 -26.6271
    -4.9134  -4.8926  -4.2227  -4.1938   3.0880   3.1860   4.3752   4.4334
     4.4421   4.5009   4.9170   5.0342   6.3296   6.3312   7.2006   7.3390
     7.4832   7.5038

          k = 0.1709 0.2959-0.1096 (  2466 PWs)   bands (ev):

   -52.6134 -52.6134 -26.8132 -26.8132 -26.7679 -26.7679 -26.6279 -26.6279
    -4.9035  -4.9035  -4.2085  -4.2085   3.1346   3.1346   4.3859   4.3859
     4.4874   4.4874   4.9756   4.9756   6.3291   6.3291   7.2620   7.2620
     7.4929   7.4929

          k = 0.1709 0.3946 0.0000 (  2455 PWs)   bands (ev):

   -52.6026 -52.6021 -26.8928 -26.8923 -26.7471 -26.7465 -26.6726 -26.6716
    -4.4192  -4.4020  -4.0195  -3.9987   2.9170   2.9661   3.7198   3.7395
     4.4628   4.5455   4.7930   4.9107   5.9949   6.0072   6.9127   6.9687
     7.5632   7.5645

          k = 0.1709 0.3946-0.1096 (  2446 PWs)   bands (ev):

   -52.6021 -52.6021 -26.8922 -26.8922 -26.7463 -26.7463 -26.6721 -26.6721
    -4.4108  -4.4108  -4.0089  -4.0089   2.9418   2.9418   3.7297   3.7297
     4.4965   4.4965   4.8622   4.8622   6.0016   6.0016   6.9386   6.9386
     7.5656   7.5656

          k = 0.1709 0.4932 0.0000 (  2451 PWs)   bands (ev):

   -52.5944 -52.5942 -26.9487 -26.9485 -26.7312 -26.7306 -26.7068 -26.7060
    -4.0091  -3.9977  -3.8513  -3.8396   2.7194   2.7521   3.1543   3.1619
     4.3062   4.3817   4.9122   4.9980   5.8770   5.9035   6.5138   6.5524
     7.8127   7.8315

          k = 0.1709 0.4932-0.1096 (  2444 PWs)   bands (ev):

   -52.5942 -52.5942 -26.9481 -26.9481 -26.7307 -26.7307 -26.7064 -26.7064
    -4.0035  -4.0035  -3.8449  -3.8449   2.7357   2.7357   3.1583   3.1583
     4.3420   4.3420   4.9580   4.9580   5.8907   5.8907   6.5326   6.5326
     7.8243   7.8243

          k = 0.1709 0.5919 0.0000 (  2448 PWs)   bands (ev):

   -52.5914 -52.5913 -26.9688 -26.9688 -26.7252 -26.7250 -26.7190 -26.7186
    -3.8449  -3.8375  -3.7838  -3.7776   2.6453   2.6747   2.9496   2.9509
     4.1508   4.2273   5.0117   5.0745   5.8974   5.9186   6.3062   6.3626
     7.9936   8.0234

          k = 0.1709 0.5919-0.1096 (  2466 PWs)   bands (ev):

   -52.5917 -52.5917 -26.9690 -26.9690 -26.7258 -26.7258 -26.7197 -26.7197
    -3.8415  -3.8415  -3.7807  -3.7807   2.6595   2.6595   2.9481   2.9481
     4.1871   4.1871   5.0427   5.0427   5.9082   5.9082   6.3325   6.3325
     8.0072   8.0072

          k = 0.2563 0.4439 0.0000 (  2447 PWs)   bands (ev):

   -52.5943 -52.5942 -26.9209 -26.9205 -26.7349 -26.7345 -26.7314 -26.7307
    -4.0172  -4.0053  -3.8444  -3.8312   2.9245   2.9579   3.1204   3.1341
     4.6143   4.6409   4.8526   4.9663   5.2527   5.2837   6.6191   6.6343
     7.7855   7.8033

          k = 0.2563 0.4439-0.1096 (  2432 PWs)   bands (ev):

   -52.5939 -52.5939 -26.9205 -26.9205 -26.7342 -26.7342 -26.7302 -26.7302
    -4.0114  -4.0114  -3.8374  -3.8374   2.9410   2.9410   3.1293   3.1293
     4.6201   4.6201   4.9184   4.9184   5.2692   5.2692   6.6260   6.6260
     7.7953   7.7953

          k = 0.2563 0.5425 0.0000 (  2442 PWs)   bands (ev):

   -52.5897 -52.5893 -26.9263 -26.9259 -26.7818 -26.7812 -26.7223 -26.7215
    -3.7645  -3.7584  -3.7299  -3.7244   2.7436   2.7577   3.0638   3.0877
     4.3151   4.3559   4.9854   5.0194   5.0902   5.1698   6.2374   6.2875
     8.1066   8.1324

          k = 0.2563 0.5425-0.1096 (  2448 PWs)   bands (ev):

   -52.5897 -52.5897 -26.9266 -26.9266 -26.7815 -26.7815 -26.7222 -26.7222
    -3.7618  -3.7618  -3.7270  -3.7270   2.7500   2.7500   3.0758   3.0758
     4.3343   4.3343   4.9936   4.9936   5.1408   5.1408   6.2601   6.2601
     8.1191   8.1191

          k = 0.3417 0.5919 0.0000 (  2457 PWs)   bands (ev):

   -52.5882 -52.5882 -26.8914 -26.8914 -26.8369 -26.8368 -26.7192 -26.7192
    -3.6799  -3.6799  -3.6713  -3.6713   2.5789   2.5964   3.4961   3.4961
     4.0148   4.0432   4.6719   4.6719   5.2997   5.2997   6.0611   6.0611
     8.3015   8.3300

          k = 0.3417 0.5919-0.1096 (  2442 PWs)   bands (ev):

   -52.5878 -52.5878 -26.8910 -26.8910 -26.8364 -26.8364 -26.7183 -26.7183
    -3.6797  -3.6797  -3.6712  -3.6712   2.5889   2.5889   3.4973   3.4973
     4.0289   4.0289   4.6686   4.6686   5.3074   5.3074   6.0579   6.0579
     8.3173   8.3173

     highest occupied level (ev):     8.4800

!    total energy              =    -993.29709585 Ry

     total all-electron energy =    -19389.957518 Ry
     estimated scf accuracy    <          4.6E-09 Ry

     The total energy is the sum of the following terms:
     one-electron contribution =    -295.74109566 Ry
     hartree contribution      =     170.52107194 Ry
     xc contribution           =     -59.62256386 Ry
     ewald contribution        =    -169.21588316 Ry
     one-center paw contrib.   =    -639.23862513 Ry

     convergence has been achieved in  24 iterations

     Forces acting on atoms (cartesian axes, Ry/au):

     atom    1 type  1   force =    -0.00000000   -0.00000000   -0.00000000
     atom    2 type  1   force =     0.00000000   -0.00000000   -0.00000000
     atom    3 type  2   force =     0.00000000    0.00000000    0.03137094
     atom    4 type  2   force =    -0.00000000   -0.00000000   -0.03137094
     atom    5 type  2   force =     0.00000000   -0.00000000    0.03137094
     atom    6 type  2   force =    -0.00000000   -0.00000000   -0.03137094

     Total force =     0.062742     Total SCF correction =     0.000138


     Computing stress (Cartesian axis) and pressure

          total   stress  (Ry/bohr**3)                   (kbar)     P=        0.09
   0.00003650   0.00000000   0.00000000            5.37        0.00        0.00
   0.00000000   0.00003650   0.00000000            0.00        5.37        0.00
   0.00000000   0.00000000  -0.00007121            0.00        0.00      -10.48

     Energy error            =      6.0E-03 Ry
     Gradient error          =      3.1E-02 Ry/Bohr
     Cell gradient error     =      1.0E+01 kbar

     number of scf cycles    =   3
     number of bfgs steps    =   2

     enthalpy           old  =    -993.2911035743 Ry
     enthalpy           new  =    -993.2970958500 Ry

     CASE: enthalpy          _new < enthalpy          _old

     new trust radius        =       0.0657732316 bohr
ibrav =      4
 celldm(1) =      5.84133973
 celldm(3) =      4.66144048
Input lattice vectors:
     0.96890210    -0.00000000     0.00000000
    -0.48445105     0.83909383     0.00000000
    -0.00000000    -0.00000000     4.51647946
New lattice vectors in INITIAL alat:
     0.96890210     0.00000000     0.00000000
    -0.48445105     0.83909383     0.00000000
     0.00000000     0.00000000     4.51647946
New lattice vectors in NEW alat (for information only):
     1.00000000     0.00000000     0.00000000
    -0.50000000     0.86602540     0.00000000
[...]

     total energy              =    -993.25914256 Ry
     estimated scf accuracy    <       0.00000096 Ry

     iteration # 12     ecut=    30.00 Ry     beta= 0.70
     Davidson diagonalization with overlap
     ethr =  1.84E-09,  avg # of iterations =  3.2

     total cpu time spent up to now is      243.3 secs

     total energy              =    -993.25914188 Ry
     estimated scf accuracy    <       0.00000206 Ry

     iteration # 13     ecut=    30.00 Ry     beta= 0.70
     Davidson diagonalization with overlap
     ethr =  1.84E-09,  avg # of iterations =  4.5

     total cpu time spent up to now is      244.0 secs

     total energy              =    -993.25914229 Ry
     estimated scf accuracy    <       0.00000004 Ry

     iteration # 14     ecut=    30.00 Ry     beta= 0.70
     Davidson diagonalization with overlap
     ethr =  6.85E-11,  avg # of iterations =  5.9

     total cpu time spent up to now is      244.8 secs

     total energy              =    -993.25914229 Ry
     estimated scf accuracy    <       0.00000050 Ry

     iteration # 15     ecut=    30.00 Ry     beta= 0.70
     Davidson diagonalization with overlap
     ethr =  6.85E-11,  avg # of iterations =  3.2

     total cpu time spent up to now is      245.3 secs

     total energy              =    -993.25914220 Ry
     estimated scf accuracy    <       0.00000028 Ry

     iteration # 16     ecut=    30.00 Ry     beta= 0.70
     Davidson diagonalization with overlap
     ethr =  6.85E-11,  avg # of iterations =  6.9

     total cpu time spent up to now is      246.2 secs

     total energy              =    -993.25914227 Ry
     estimated scf accuracy    <       0.00000008 Ry

     iteration # 17     ecut=    30.00 Ry     beta= 0.70
     Davidson diagonalization with overlap
     ethr =  6.85E-11,  avg # of iterations =  2.5

     total cpu time spent up to now is      246.7 secs

     total energy              =    -993.25914227 Ry
     estimated scf accuracy    <       0.00000002 Ry

     iteration # 18     ecut=    30.00 Ry     beta= 0.70
     Davidson diagonalization with overlap
     ethr =  4.11E-11,  avg # of iterations =  3.4

     total cpu time spent up to now is      247.2 secs

     total energy              =    -993.25914227 Ry
     estimated scf accuracy    <          2.1E-09 Ry

     iteration # 19     ecut=    30.00 Ry     beta= 0.70
     Davidson diagonalization with overlap
     ethr =  3.99E-12,  avg # of iterations =  5.8

     total cpu time spent up to now is      248.0 secs

     total energy              =    -993.25914227 Ry
     estimated scf accuracy    <          3.0E-09 Ry

     iteration # 20     ecut=    30.00 Ry     beta= 0.70
     Davidson diagonalization with overlap
     ethr =  3.99E-12,  avg # of iterations =  1.3

     total cpu time spent up to now is      248.4 secs

     total energy              =    -993.25914227 Ry
     estimated scf accuracy    <          1.5E-09 Ry

     iteration # 21     ecut=    30.00 Ry     beta= 0.70
     Davidson diagonalization with overlap
     ethr =  2.95E-12,  avg # of iterations =  2.4

     total cpu time spent up to now is      248.8 secs

     total energy              =    -993.25914227 Ry
     estimated scf accuracy    <          4.1E-10 Ry

     iteration # 22     ecut=    30.00 Ry     beta= 0.70
     Davidson diagonalization with overlap
     ethr =  7.87E-13,  avg # of iterations =  1.7

     total cpu time spent up to now is      249.3 secs

     total energy              =    -993.25914227 Ry
     estimated scf accuracy    <          4.3E-10 Ry

     iteration # 23     ecut=    30.00 Ry     beta= 0.70
     Davidson diagonalization with overlap
     ethr =  7.87E-13,  avg # of iterations =  1.5

     total cpu time spent up to now is      249.7 secs

     total energy              =    -993.25914227 Ry
     estimated scf accuracy    <          2.4E-10 Ry

     iteration # 24     ecut=    30.00 Ry     beta= 0.70
     Davidson diagonalization with overlap
     ethr =  4.56E-13,  avg # of iterations =  3.3

     total cpu time spent up to now is      250.2 secs

     End of self-consistent calculation

          k = 0.0000 0.0000 0.0000 (  2009 PWs)   bands (ev):

   -50.5990 -50.5963 -24.7517 -24.7450 -24.4615 -24.4615 -24.4584 -24.4584
    -3.9315  -3.7084  -2.7338  -2.3677   4.2067   5.0900   7.5389   7.9977
     7.9977   8.0014   8.0014   9.1402   9.1402   9.1540   9.1540   9.6176
     9.8125  10.9295

          k = 0.0000 0.0000-0.1265 (  1974 PWs)   bands (ev):

   -50.5962 -50.5962 -24.7464 -24.7464 -24.4571 -24.4571 -24.4571 -24.4571
    -3.8338  -3.8338  -2.5383  -2.5383   4.5874   4.5874   8.0082   8.0082
     8.0082   8.0082   8.3735   8.3735   9.1561   9.1561   9.1561   9.1561
    10.6476  10.6476

          k = 0.0000 0.0985 0.0000 (  1969 PWs)   bands (ev):

   -50.5934 -50.5921 -24.7420 -24.7380 -24.4868 -24.4864 -24.4654 -24.4636
    -3.8196  -3.5972  -2.6789  -2.3234   4.3363   5.2220   7.3577   7.7524
     7.7644   8.1198   8.1304   8.6108   8.9612   8.9865   9.2000   9.8386
     9.8971  10.7872

          k = 0.0000 0.0985-0.1265 (  1966 PWs)   bands (ev):

   -50.5925 -50.5925 -24.7395 -24.7395 -24.4868 -24.4868 -24.4638 -24.4638
    -3.7230  -3.7230  -2.4883  -2.4883   4.7121   4.7121   7.7562   7.7562
     8.0768   8.0768   8.1262   8.1262   8.9758   8.9758   9.2659   9.2659
    10.5749  10.5749

          k = 0.0000 0.1970 0.0000 (  1977 PWs)   bands (ev):

   -50.5848 -50.5839 -24.7256 -24.7232 -24.5730 -24.5713 -24.4831 -24.4817
    -3.5003  -3.2826  -2.5224  -2.1987   4.6716   5.5313   6.9363   7.1480
     7.2029   7.8166   8.4366   8.4576   8.5366   8.5844   9.0880   9.8182
     9.8287  10.3005

          k = 0.0000 0.1970-0.1265 (  1962 PWs)   bands (ev):

   -50.5837 -50.5837 -24.7227 -24.7227 -24.5708 -24.5708 -24.4824 -24.4824
    -3.4070  -3.4070  -2.3459  -2.3459   5.0226   5.0226   7.1541   7.1541
     7.5154   7.5154   8.4458   8.4458   8.5603   8.5603   9.2591   9.2591
    10.2216  10.2216

          k = 0.0000 0.2955 0.0000 (  1985 PWs)   bands (ev):

   -50.5732 -50.5723 -24.7007 -24.6995 -24.6885 -24.6860 -24.5102 -24.5081
    -3.0212  -2.8165  -2.2883  -2.0165   5.0054   5.6634   6.4219   6.5372
     6.7954   7.0038   8.0714   8.1209   8.7600   8.8493   8.9063   9.3863
     9.5670   9.7091

          k = 0.0000 0.2955-0.1265 (  1990 PWs)   bands (ev):

   -50.5729 -50.5729 -24.7006 -24.7006 -24.6873 -24.6873 -24.5099 -24.5099
    -2.9358  -2.9358  -2.1355  -2.1355   5.2712   5.2712   6.5180   6.5180
     6.9420   6.9420   8.0918   8.0918   8.8781   8.8781   8.9857   8.9857
     9.6897   9.6897

          k = 0.0000 0.3939 0.0000 (  1995 PWs)   bands (ev):

   -50.5614 -50.5609 -24.8011 -24.7992 -24.6777 -24.6773 -24.5358 -24.5342
    -2.4687  -2.2933  -2.0225  -1.8192   4.9220   5.2540   5.8890   6.2324
     6.2528   6.7738   7.6797   7.7332   8.4459   8.9337   9.2481   9.2962
     9.3443   9.5237

          k = 0.0000 0.3939-0.1265 (  1998 PWs)   bands (ev):

   -50.5612 -50.5612 -24.8001 -24.8001 -24.6773 -24.6773 -24.5355 -24.5355
    -2.3995  -2.3995  -1.9025  -1.9025   5.0676   5.0676   5.9894   5.9894
     6.6098   6.6098   7.7061   7.7061   8.6347   8.6347   9.2984   9.2984
     9.4498   9.4498

          k = 0.0000 0.4924 0.0000 (  1985 PWs)   bands (ev):

   -50.5522 -50.5515 -24.8800 -24.8792 -24.6605 -24.6579 -24.5537 -24.5529
    -1.9876  -1.8612  -1.7949  -1.6694   4.5405   4.7925   5.4717   5.7090
     6.0863   6.6451   7.4227   7.4870   8.3012   8.6145   9.4875   9.5018
     9.6424   9.7136

          k = 0.0000 0.4924-0.1265 (  1992 PWs)   bands (ev):

   -50.5522 -50.5522 -24.8792 -24.8792 -24.6604 -24.6604 -24.5543 -24.5543
    -1.9432  -1.9432  -1.7133  -1.7133   4.6574   4.6574   5.5480   5.5480
     6.4202   6.4202   7.4516   7.4516   8.4314   8.4314   9.5720   9.5720
     9.6203   9.6203

          k = 0.0000-0.5909 0.0000 (  1978 PWs)   bands (ev):

   -50.5483 -50.5482 -24.9084 -24.9080 -24.6534 -24.6526 -24.5590 -24.5582
    -1.7834  -1.6972  -1.6929  -1.6195   4.3533   4.6024   5.3137   5.5062
     6.0141   6.5531   7.3386   7.3994   8.2852   8.4808   9.5802   9.7374
     9.7406   9.8054

          k = 0.0000-0.5909-0.1265 (  1996 PWs)   bands (ev):

   -50.5492 -50.5492 -24.9084 -24.9084 -24.6552 -24.6552 -24.5613 -24.5613
    -1.7562  -1.7562  -1.6404  -1.6404   4.4699   4.4699   5.3741   5.3741
     6.3233   6.3233   7.3650   7.3650   8.3733   8.3733   9.6598   9.6598
     9.7696   9.7696

          k = 0.0853 0.1477 0.0000 (  1965 PWs)   bands (ev):

   -50.5867 -50.5864 -24.7299 -24.7285 -24.5424 -24.5416 -24.4779 -24.4777
    -3.6039  -3.3843  -2.5733  -2.2390   4.5709   5.4481   7.0808   7.3491
     7.3612   8.0991   8.3237   8.3411   8.5267   8.5830   9.2771   9.8434
     9.9774  10.4699

          k = 0.0853 0.1477-0.1265 (  1950 PWs)   bands (ev):

   -50.5860 -50.5860 -24.7280 -24.7280 -24.5413 -24.5413 -24.4766 -24.4766
    -3.5093  -3.5093  -2.3919  -2.3919   4.9327   4.9327   7.3475   7.3475
     7.7080   7.7080   8.3331   8.3331   8.5547   8.5547   9.3954   9.3954
    10.3632  10.3632

          k = 0.0853 0.2462 0.0000 (  1977 PWs)   bands (ev):

   -50.5774 -50.5762 -24.7107 -24.7080 -24.6398 -24.6385 -24.5056 -24.5031
    -3.2036  -2.9931  -2.3768  -2.0841   4.9285   5.7173   6.6863   6.7788
     6.8697   7.4061   7.8916   8.0141   8.6311   8.6548   9.2233   9.7281
     9.7415   9.9284

          k = 0.0853 0.2462-0.1265 (  1972 PWs)   bands (ev):

   -50.5766 -50.5766 -24.7082 -24.7082 -24.6393 -24.6393 -24.5043 -24.5043
    -3.1148  -3.1148  -2.2143  -2.2143   5.2412   5.2412   6.7669   6.7669
     7.2211   7.2211   7.9406   7.9406   8.6439   8.6439   9.3599   9.3599
     9.9088   9.9088

          k = 0.0853 0.3447 0.0000 (  1992 PWs)   bands (ev):

   -50.5658 -50.5651 -24.7488 -24.7483 -24.6871 -24.6849 -24.5372 -24.5360
    -2.6838  -2.4943  -2.1233  -1.8903   5.0782   5.5287   6.1900   6.3861
     6.5849   6.7921   7.4194   7.6381   8.8001   8.8331   8.9388   9.2652
     9.5716   9.6438

          k = 0.0853 0.3447-0.1265 (  1996 PWs)   bands (ev):

   -50.5656 -50.5656 -24.7485 -24.7485 -24.6869 -24.6869 -24.5366 -24.5366
    -2.6070  -2.6070  -1.9891  -1.9891   5.2708   5.2708   6.2757   6.2757
     6.7322   6.7322   7.5457   7.5457   8.8067   8.8067   9.0621   9.0621
     9.6207   9.6207

          k = 0.0853 0.4432 0.0000 (  1995 PWs)   bands (ev):

   -50.5558 -50.5545 -24.8417 -24.8391 -24.6675 -24.6646 -24.5638 -24.5627
    -2.1564  -2.0070  -1.8697  -1.7105   4.8019   5.0639   5.6672   5.8762
     6.2283   6.7670   7.2376   7.4383   8.5809   8.8172   8.8326   8.9319
     9.7481   9.7973

          k = 0.0853 0.4432-0.1265 (  1998 PWs)   bands (ev):

   -50.5553 -50.5553 -24.8405 -24.8405 -24.6660 -24.6660 -24.5637 -24.5637
    -2.1009  -2.1009  -1.7708  -1.7708   4.9213   4.9213   5.7402   5.7402
     6.5217   6.5217   7.3709   7.3709   8.6291   8.6291   8.9302   8.9302
     9.7748   9.7748

          k = 0.0853 0.5417 0.0000 (  1994 PWs)   bands (ev):

   -50.5492 -50.5489 -24.8924 -24.8915 -24.6548 -24.6537 -24.5796 -24.5788
    -1.7957  -1.6988  -1.6967  -1.6082   4.5057   4.7480   5.3368   5.4676
     6.0855   6.6098   7.2311   7.3489   8.3192   8.5972   8.9306   9.0850
     9.9391  10.0604

          k = 0.0853 0.5417-0.1265 (  1996 PWs)   bands (ev):

   -50.5492 -50.5492 -24.8920 -24.8920 -24.6547 -24.6547 -24.5790 -24.5790
    -1.7663  -1.7663  -1.6334  -1.6334   4.6191   4.6191   5.3807   5.3807
     6.3588   6.3588   7.3178   7.3178   8.4252   8.4252   9.0219   9.0219
    10.0030  10.0030

          k = 0.1706 0.2955 0.0000 (  1987 PWs)   bands (ev):

   -50.5670 -50.5668 -24.7235 -24.7226 -24.6897 -24.6877 -24.5451 -24.5427
    -2.7600  -2.5660  -2.1584  -1.9149   5.1459   5.6721   6.4440   6.5404
     6.7582   6.8344   7.0334   7.4612   8.5689   8.5800   9.2898   9.4913
     9.6594   9.6985

          k = 0.1706 0.2955-0.1265 (  1988 PWs)   bands (ev):

   -50.5670 -50.5670 -24.7222 -24.7222 -24.6891 -24.6891 -24.5445 -24.5445
    -2.6807  -2.6807  -2.0189  -2.0189   5.3697   5.3697   6.4663   6.4663
     6.8403   6.8403   7.2865   7.2865   8.5720   8.5720   9.3452   9.3452
     9.6830   9.6830

          k = 0.1706 0.3939 0.0000 (  1989 PWs)   bands (ev):

   -50.5570 -50.5563 -24.8000 -24.7980 -24.6700 -24.6680 -24.5879 -24.5868
    -2.2535  -2.0924  -1.9087  -1.7295   5.0695   5.3501   5.9085   6.0265
     6.5189   6.7708   6.8818   7.3260   8.1697   8.2669   8.9777   9.0965
     9.7576   9.7944

          k = 0.1706 0.3939-0.1265 (  1992 PWs)   bands (ev):

   -50.5568 -50.5568 -24.7994 -24.7994 -24.6689 -24.6689 -24.5874 -24.5874
    -2.1922  -2.1922  -1.7999  -1.7999   5.1979   5.1979   5.9663   5.9663
     6.5796   6.5796   7.2027   7.2027   8.2078   8.2078   9.0118   9.0118
     9.7759   9.7759

          k = 0.1706 0.4924 0.0000 (  1992 PWs)   bands (ev):

   -50.5493 -50.5490 -24.8529 -24.8525 -24.6549 -24.6539 -24.6209 -24.6200
    -1.8198  -1.7105  -1.6944  -1.5862   4.8642   5.0825   5.3774   5.4222
     6.3356   6.7816   6.9046   7.3536   7.9743   8.1896   8.4740   8.7792
     9.9637  10.0794

          k = 0.1706 0.4924-0.1265 (  2000 PWs)   bands (ev):

   -50.5495 -50.5495 -24.8530 -24.8530 -24.6547 -24.6547 -24.6214 -24.6214
    -1.7856  -1.7856  -1.6201  -1.6201   4.9651   4.9651   5.3998   5.3998
     6.4832   6.4832   7.2154   7.2154   8.0852   8.0852   8.6047   8.6047
    10.0236  10.0236

          k = 0.1706 0.5909 0.0000 (  1987 PWs)   bands (ev):

   -50.5465 -50.5458 -24.8721 -24.8707 -24.6490 -24.6474 -24.6334 -24.6330
    -1.6371  -1.6005  -1.5666  -1.5386   4.7701   4.9852   5.1794   5.2024
     6.1957   6.6527   7.0430   7.3714   7.9778   8.1994   8.2416   8.6225
    10.1132  10.2711

          k = 0.1706 0.5909-0.1265 (  1990 PWs)   bands (ev):

   -50.5462 -50.5462 -24.8707 -24.8707 -24.6496 -24.6496 -24.6327 -24.6327
    -1.6225  -1.6225  -1.5487  -1.5487   4.8707   4.8707   5.1897   5.1897
     6.3710   6.3710   7.2809   7.2809   8.0830   8.0830   8.4102   8.4102
    10.1981  10.1981

          k = 0.2559 0.4432 0.0000 (  1991 PWs)   bands (ev):

   -50.5492 -50.5491 -24.8261 -24.8256 -24.6555 -24.6540 -24.6485 -24.6477
    -1.8312  -1.7166  -1.6924  -1.5759   5.0828   5.2800   5.3521   5.4595
     6.7386   6.7785   6.8152   7.3456   7.3957   7.6120   8.5707   8.8688
     9.9508  10.0507

          k = 0.2559 0.4432-0.1265 (  2004 PWs)   bands (ev):

   -50.5497 -50.5497 -24.8271 -24.8271 -24.6551 -24.6551 -24.6493 -24.6493
    -1.7949  -1.7949  -1.6136  -1.6136   5.1696   5.1696   5.4142   5.4142
     6.6429   6.6429   7.1932   7.1932   7.5206   7.5206   8.6915   8.6915
     9.9961   9.9961

          k = 0.2559 0.5417 0.0000 (  1992 PWs)   bands (ev):

   -50.5452 -50.5444 -24.8320 -24.8299 -24.6945 -24.6931 -24.6469 -24.6457
    -1.5520  -1.5426  -1.4945  -1.4880   4.9797   5.0909   5.2048   5.3571
     6.4294   6.6840   6.9943   7.0780   7.3285   7.4262   8.2176   8.5602
    10.2355  10.3810

          k = 0.2559 0.5417-0.1265 (  1984 PWs)   bands (ev):

   -50.5444 -50.5444 -24.8302 -24.8302 -24.6928 -24.6928 -24.6460 -24.6460
    -1.5473  -1.5473  -1.4909  -1.4909   5.0264   5.0264   5.2947   5.2947
     6.4939   6.4939   7.0489   7.0489   7.4724   7.4724   8.3324   8.3324
    10.3077  10.3077

          k = 0.3412 0.5909 0.0000 (  1989 PWs)   bands (ev):

   -50.5432 -50.5432 -24.7952 -24.7952 -24.7481 -24.7468 -24.6441 -24.6441
    -1.4656  -1.4656  -1.4327  -1.4327   4.8204   4.9485   5.6632   5.6632
     6.1473   6.3607   6.9037   6.9037   7.2860   7.2860   8.2654   8.2654
    10.4250  10.5767

          k = 0.3412 0.5909-0.1265 (  1992 PWs)   bands (ev):

   -50.5433 -50.5433 -24.7956 -24.7956 -24.7478 -24.7478 -24.6437 -24.6437
    -1.4655  -1.4655  -1.4329  -1.4329   4.8814   4.8814   5.6810   5.6810
     6.2575   6.2575   6.7318   6.7318   7.5632   7.5632   8.1326   8.1326
    10.4896  10.4896

     highest occupied level (ev):    10.9295

!    total energy              =    -993.25914227 Ry

     total all-electron energy =    -19389.919565 Ry
     estimated scf accuracy    <          6.4E-11 Ry

     The total energy is the sum of the following terms:
     one-electron contribution =    -173.43458025 Ry
     hartree contribution      =     113.43705326 Ry
     xc contribution           =     -59.52109862 Ry
     ewald contribution        =    -234.53881342 Ry
     one-center paw contrib.   =    -639.20170325 Ry

     convergence has been achieved in  24 iterations

     Forces acting on atoms (cartesian axes, Ry/au):

     atom    1 type  1   force =     0.00000000    0.00000000   -0.00000000
     atom    2 type  1   force =     0.00000000   -0.00000000    0.00000000
     atom    3 type  2   force =     0.00000000    0.00000000   -0.00000067
     atom    4 type  2   force =    -0.00000000   -0.00000000    0.00000067
     atom    5 type  2   force =     0.00000000    0.00000000   -0.00000067
     atom    6 type  2   force =     0.00000000   -0.00000000    0.00000067

     Total force =     0.000001     Total SCF correction =     0.000019
     SCF correction compared to forces is large: reduce conv_thr to get better values


     Computing stress (Cartesian axis) and pressure

          total   stress  (Ry/bohr**3)                   (kbar)     P=      -70.17
  -0.00038660   0.00000000   0.00000000          -56.87        0.00        0.00
   0.00000000  -0.00038660   0.00000000            0.00      -56.87        0.00
   0.00000000   0.00000000  -0.00065777            0.00        0.00      -96.76


     Writing all to output data dir ./out/MoS2.save/

     init_run     :      1.08s CPU      1.12s WALL (       2 calls)
     electrons    :    226.96s CPU    234.77s WALL (      14 calls)
     update_pot   :      3.50s CPU      3.57s WALL (      12 calls)
     forces       :      2.31s CPU      2.32s WALL (      14 calls)
     stress       :      7.26s CPU      7.26s WALL (      14 calls)

     Called by init_run:
     wfcinit      :      0.38s CPU      0.39s WALL (       2 calls)
     potinit      :      0.26s CPU      0.28s WALL (       2 calls)
     hinit0       :      0.40s CPU      0.41s WALL (       2 calls)

     Called by electrons:
     c_bands      :    172.50s CPU    177.46s WALL (     366 calls)
     sum_band     :     21.68s CPU     22.30s WALL (     366 calls)
     v_of_rho     :      1.11s CPU      1.11s WALL (     378 calls)
     newd         :      2.21s CPU      2.41s WALL (     378 calls)
     PAW_pot      :     31.26s CPU     33.39s WALL (     390 calls)
     mix_rho      :      0.23s CPU      0.23s WALL (     366 calls)

     Called by c_bands:
     init_us_2    :      3.56s CPU      3.65s WALL (   29412 calls)
     init_us_2:cp :      3.51s CPU      3.61s WALL (   29412 calls)
     cegterg      :    164.94s CPU    169.70s WALL (   13968 calls)

     Called by *egterg:
     cdiaghg      :     51.59s CPU     52.81s WALL (   65901 calls)
     h_psi        :     90.63s CPU     93.54s WALL (   66569 calls)
     s_psi        :      2.47s CPU      2.55s WALL (   66569 calls)
     g_psi        :      0.65s CPU      0.67s WALL (   52525 calls)

     Called by h_psi:
     h_psi:calbec :      6.93s CPU      7.16s WALL (   66569 calls)
     vloc_psi     :     80.39s CPU     82.96s WALL (   66569 calls)
     add_vuspsi   :      2.70s CPU      2.80s WALL (   66569 calls)

     General routines
     calbec       :      9.41s CPU      9.71s WALL (   83593 calls)
     fft          :      0.54s CPU      0.55s WALL (    4522 calls)
     ffts         :      0.02s CPU      0.02s WALL (     366 calls)
     fftw         :     82.05s CPU     84.59s WALL ( 2553250 calls)

     Parallel routines

     PWSCF        :   4m 2.74s CPU   4m10.96s WALL


   This run was terminated on:  17:46:41  13Jul2022            

=------------------------------------------------------------------------------=
   JOB DONE.
=------------------------------------------------------------------------------=
